   2   2   0   0
  0.2560000E+03  0.8000000E-09  0.8000000E-09  0.8000000E-09  0.2000000E-16
   1.0000000000000000E-004
  CAR 
 CO dimer in a box                       
      3.89471442    -31.28516964  301     -7.71373118      1.00000000
    -31.285  0.0000E+00  0.0000E+00
    -31.168  0.0000E+00  0.0000E+00
    -31.051  0.0000E+00  0.0000E+00
    -30.933  0.0000E+00  0.0000E+00
    -30.816  0.0000E+00  0.0000E+00
    -30.699  0.0000E+00  0.0000E+00
    -30.582  0.0000E+00  0.0000E+00
    -30.464  0.1552E-16  0.1820E-17
    -30.347  0.8335E-14  0.9792E-15
    -30.230  0.3347E-11  0.3934E-12
    -30.113  0.6832E-09  0.8051E-10
    -29.995  0.7119E-07  0.8429E-08
    -29.878  0.3798E-05  0.4538E-06
    -29.761  0.1041E-03  0.1266E-04
    -29.643  0.1471E-02  0.1852E-03
    -29.526  0.1077E-01  0.1448E-02
    -29.409  0.4099E-01  0.6256E-02
    -29.292  0.8135E-01  0.1579E-01
    -29.174  0.8432E-01  0.2568E-01
    -29.057  0.4565E-01  0.3104E-01
    -28.940  0.1289E-01  0.3255E-01
    -28.823  0.1893E-02  0.3277E-01
    -28.705  0.1440E-03  0.3279E-01
    -28.588  0.5655E-05  0.3279E-01
    -28.471  0.1141E-06  0.3279E-01
    -28.354  0.1179E-08  0.3279E-01
    -28.236  0.6223E-11  0.3279E-01
    -28.119  0.1676E-13  0.3279E-01
    -28.002  0.0000E+00  0.3279E-01
    -27.884  0.0000E+00  0.3279E-01
    -27.767  0.0000E+00  0.3279E-01
    -27.650  0.0000E+00  0.3279E-01
    -27.533  0.0000E+00  0.3279E-01
    -27.415  0.0000E+00  0.3279E-01
    -27.298  0.0000E+00  0.3279E-01
    -27.181  0.0000E+00  0.3279E-01
    -27.064  0.0000E+00  0.3279E-01
    -26.946  0.0000E+00  0.3279E-01
    -26.829  0.0000E+00  0.3279E-01
    -26.712  0.0000E+00  0.3279E-01
    -26.595  0.0000E+00  0.3279E-01
    -26.477  0.0000E+00  0.3279E-01
    -26.360  0.0000E+00  0.3279E-01
    -26.243  0.0000E+00  0.3279E-01
    -26.125  0.0000E+00  0.3279E-01
    -26.008  0.0000E+00  0.3279E-01
    -25.891  0.0000E+00  0.3279E-01
    -25.774  0.0000E+00  0.3279E-01
    -25.656  0.0000E+00  0.3279E-01
    -25.539  0.0000E+00  0.3279E-01
    -25.422  0.0000E+00  0.3279E-01
    -25.305  0.0000E+00  0.3279E-01
    -25.187  0.0000E+00  0.3279E-01
    -25.070  0.0000E+00  0.3279E-01
    -24.953  0.0000E+00  0.3279E-01
    -24.836  0.0000E+00  0.3279E-01
    -24.718  0.0000E+00  0.3279E-01
    -24.601  0.0000E+00  0.3279E-01
    -24.484  0.0000E+00  0.3279E-01
    -24.366  0.0000E+00  0.3279E-01
    -24.249  0.0000E+00  0.3279E-01
    -24.132  0.0000E+00  0.3279E-01
    -24.015  0.0000E+00  0.3279E-01
    -23.897  0.0000E+00  0.3279E-01
    -23.780  0.0000E+00  0.3279E-01
    -23.663  0.0000E+00  0.3279E-01
    -23.546  0.0000E+00  0.3279E-01
    -23.428  0.0000E+00  0.3279E-01
    -23.311  0.0000E+00  0.3279E-01
    -23.194  0.0000E+00  0.3279E-01
    -23.077  0.0000E+00  0.3279E-01
    -22.959  0.0000E+00  0.3279E-01
    -22.842  0.0000E+00  0.3279E-01
    -22.725  0.0000E+00  0.3279E-01
    -22.607  0.0000E+00  0.3279E-01
    -22.490  0.0000E+00  0.3279E-01
    -22.373  0.0000E+00  0.3279E-01
    -22.256  0.0000E+00  0.3279E-01
    -22.138  0.0000E+00  0.3279E-01
    -22.021  0.0000E+00  0.3279E-01
    -21.904  0.0000E+00  0.3279E-01
    -21.787  0.0000E+00  0.3279E-01
    -21.669  0.0000E+00  0.3279E-01
    -21.552  0.0000E+00  0.3279E-01
    -21.435  0.0000E+00  0.3279E-01
    -21.318  0.0000E+00  0.3279E-01
    -21.200  0.0000E+00  0.3279E-01
    -21.083  0.0000E+00  0.3279E-01
    -20.966  0.0000E+00  0.3279E-01
    -20.848  0.0000E+00  0.3279E-01
    -20.731  0.0000E+00  0.3279E-01
    -20.614  0.0000E+00  0.3279E-01
    -20.497  0.0000E+00  0.3279E-01
    -20.379  0.0000E+00  0.3279E-01
    -20.262  0.0000E+00  0.3279E-01
    -20.145  0.0000E+00  0.3279E-01
    -20.028  0.0000E+00  0.3279E-01
    -19.910  0.0000E+00  0.3279E-01
    -19.793  0.0000E+00  0.3279E-01
    -19.676  0.0000E+00  0.3279E-01
    -19.559  0.0000E+00  0.3279E-01
    -19.441  0.0000E+00  0.3279E-01
    -19.324  0.0000E+00  0.3279E-01
    -19.207  0.0000E+00  0.3279E-01
    -19.089  0.0000E+00  0.3279E-01
    -18.972  0.0000E+00  0.3279E-01
    -18.855  0.0000E+00  0.3279E-01
    -18.738  0.0000E+00  0.3279E-01
    -18.620  0.0000E+00  0.3279E-01
    -18.503  0.0000E+00  0.3279E-01
    -18.386  0.0000E+00  0.3279E-01
    -18.269  0.0000E+00  0.3279E-01
    -18.151  0.0000E+00  0.3279E-01
    -18.034  0.0000E+00  0.3279E-01
    -17.917  0.0000E+00  0.3279E-01
    -17.800  0.0000E+00  0.3279E-01
    -17.682  0.0000E+00  0.3279E-01
    -17.565  0.0000E+00  0.3279E-01
    -17.448  0.0000E+00  0.3279E-01
    -17.330  0.0000E+00  0.3279E-01
    -17.213  0.0000E+00  0.3279E-01
    -17.096  0.0000E+00  0.3279E-01
    -16.979  0.0000E+00  0.3279E-01
    -16.861  0.0000E+00  0.3279E-01
    -16.744  0.0000E+00  0.3279E-01
    -16.627  0.0000E+00  0.3279E-01
    -16.510  0.0000E+00  0.3279E-01
    -16.392  0.0000E+00  0.3279E-01
    -16.275  0.0000E+00  0.3279E-01
    -16.158  0.0000E+00  0.3279E-01
    -16.041  0.0000E+00  0.3279E-01
    -15.923  0.0000E+00  0.3279E-01
    -15.806  0.0000E+00  0.3279E-01
    -15.689  0.0000E+00  0.3279E-01
    -15.571  0.0000E+00  0.3279E-01
    -15.454  0.0000E+00  0.3279E-01
    -15.337  0.0000E+00  0.3279E-01
    -15.220  0.0000E+00  0.3279E-01
    -15.102  0.0000E+00  0.3279E-01
    -14.985  0.0000E+00  0.3279E-01
    -14.868  0.3725E-15  0.3279E-01
    -14.751  0.2032E-12  0.3279E-01
    -14.633  0.5739E-10  0.3279E-01
    -14.516  0.8264E-08  0.3279E-01
    -14.399  0.6083E-06  0.3279E-01
    -14.282  0.2296E-04  0.3279E-01
    -14.164  0.4463E-03  0.3284E-01
    -14.047  0.4483E-02  0.3337E-01
    -13.930  0.2337E-01  0.3611E-01
    -13.812  0.6343E-01  0.4355E-01
    -13.695  0.8987E-01  0.5408E-01
    -13.578  0.6652E-01  0.6189E-01
    -13.461  0.2571E-01  0.6490E-01
    -13.343  0.5174E-02  0.6551E-01
    -13.226  0.5406E-03  0.6557E-01
    -13.109  0.2920E-04  0.6557E-01
    -12.992  0.8123E-06  0.6557E-01
    -12.874  0.1159E-07  0.6557E-01
    -12.757  0.8457E-10  0.6557E-01
    -12.640  0.8208E-12  0.6557E-01
    -12.523  0.1395E-09  0.6557E-01
    -12.405  0.1959E-07  0.6557E-01
    -12.288  0.1407E-05  0.6557E-01
    -12.171  0.5183E-04  0.6558E-01
    -12.053  0.9831E-03  0.6570E-01
    -11.936  0.9639E-02  0.6683E-01
    -11.819  0.4905E-01  0.7258E-01
    -11.702  0.1300E+00  0.8782E-01
    -11.584  0.1798E+00  0.1089E+00
    -11.467  0.1300E+00  0.1241E+00
    -11.350  0.4904E-01  0.1299E+00
    -11.233  0.9635E-02  0.1310E+00
    -11.115  0.9826E-03  0.1311E+00
    -10.998  0.5180E-04  0.1311E+00
    -10.881  0.1406E-05  0.1311E+00
    -10.764  0.1957E-07  0.1311E+00
    -10.646  0.1393E-09  0.1311E+00
    -10.529  0.5057E-12  0.1311E+00
    -10.412  0.9312E-15  0.1311E+00
    -10.295  0.0000E+00  0.1311E+00
    -10.177  0.0000E+00  0.1311E+00
    -10.060  0.0000E+00  0.1311E+00
     -9.943  0.0000E+00  0.1311E+00
     -9.825  0.8071E-15  0.1311E+00
     -9.708  0.4148E-12  0.1311E+00
     -9.591  0.1080E-09  0.1311E+00
     -9.474  0.1435E-07  0.1311E+00
     -9.356  0.9747E-06  0.1311E+00
     -9.239  0.3397E-04  0.1312E+00
     -9.122  0.6097E-03  0.1312E+00
     -9.005  0.5659E-02  0.1319E+00
     -8.887  0.2727E-01  0.1351E+00
     -8.770  0.6845E-01  0.1431E+00
     -8.653  0.8970E-01  0.1536E+00
     -8.536  0.6142E-01  0.1608E+00
     -8.418  0.2195E-01  0.1634E+00
     -8.301  0.4084E-02  0.1639E+00
     -8.184  0.3943E-03  0.1639E+00
     -8.066  0.1967E-04  0.1639E+00
     -7.949  0.5051E-06  0.1639E+00
     -7.832  0.6650E-08  0.1639E+00
     -7.715  0.4475E-10  0.1639E+00
     -7.597  0.1535E-12  0.1639E+00
     -7.480  0.2483E-15  0.1639E+00
     -7.363  0.0000E+00  0.1639E+00
     -7.246  0.0000E+00  0.1639E+00
     -7.128  0.0000E+00  0.1639E+00
     -7.011  0.0000E+00  0.1639E+00
     -6.894  0.0000E+00  0.1639E+00
     -6.777  0.0000E+00  0.1639E+00
     -6.659  0.0000E+00  0.1639E+00
     -6.542  0.0000E+00  0.1639E+00
     -6.425  0.0000E+00  0.1639E+00
     -6.307  0.0000E+00  0.1639E+00
     -6.190  0.0000E+00  0.1639E+00
     -6.073  0.0000E+00  0.1639E+00
     -5.956  0.0000E+00  0.1639E+00
     -5.838  0.0000E+00  0.1639E+00
     -5.721  0.0000E+00  0.1639E+00
     -5.604  0.0000E+00  0.1639E+00
     -5.487  0.0000E+00  0.1639E+00
     -5.369  0.0000E+00  0.1639E+00
     -5.252  0.0000E+00  0.1639E+00
     -5.135  0.0000E+00  0.1639E+00
     -5.018  0.0000E+00  0.1639E+00
     -4.900  0.0000E+00  0.1639E+00
     -4.783  0.0000E+00  0.1639E+00
     -4.666  0.0000E+00  0.1639E+00
     -4.548  0.0000E+00  0.1639E+00
     -4.431  0.0000E+00  0.1639E+00
     -4.314  0.0000E+00  0.1639E+00
     -4.197  0.0000E+00  0.1639E+00
     -4.079  0.0000E+00  0.1639E+00
     -3.962  0.0000E+00  0.1639E+00
     -3.845  0.0000E+00  0.1639E+00
     -3.728  0.0000E+00  0.1639E+00
     -3.610  0.0000E+00  0.1639E+00
     -3.493  0.0000E+00  0.1639E+00
     -3.376  0.0000E+00  0.1639E+00
     -3.259  0.0000E+00  0.1639E+00
     -3.141  0.0000E+00  0.1639E+00
     -3.024  0.0000E+00  0.1639E+00
     -2.907  0.0000E+00  0.1639E+00
     -2.789  0.3415E-15  0.1639E+00
     -2.672  0.2038E-12  0.1639E+00
     -2.555  0.6219E-10  0.1639E+00
     -2.438  0.9674E-08  0.1639E+00
     -2.320  0.7689E-06  0.1639E+00
     -2.203  0.3133E-04  0.1639E+00
     -2.086  0.6569E-03  0.1640E+00
     -1.969  0.7116E-02  0.1648E+00
     -1.851  0.3998E-01  0.1695E+00
     -1.734  0.1169E+00  0.1833E+00
     -1.617  0.1785E+00  0.2042E+00
     -1.500  0.1423E+00  0.2209E+00
     -1.382  0.5926E-01  0.2278E+00
     -1.265  0.1286E-01  0.2293E+00
     -1.148  0.1448E-02  0.2295E+00
     -1.030  0.8441E-04  0.2295E+00
     -0.913  0.3022E-05  0.2295E+00
     -0.796  0.1917E-04  0.2295E+00
     -0.679  0.3855E-03  0.2296E+00
     -0.561  0.4016E-02  0.2300E+00
     -0.444  0.2170E-01  0.2326E+00
     -0.327  0.6106E-01  0.2397E+00
     -0.210  0.8966E-01  0.2502E+00
     -0.092  0.6879E-01  0.2583E+00
      0.025  0.2756E-01  0.2615E+00
      0.142  0.5750E-02  0.2622E+00
      0.259  0.6229E-03  0.2623E+00
      0.377  0.3490E-04  0.2623E+00
      0.494  0.1007E-05  0.2623E+00
      0.611  0.1491E-07  0.2623E+00
      0.729  0.1137E-09  0.2623E+00
      0.846  0.1951E-09  0.2623E+00
      0.963  0.2399E-07  0.2623E+00
      1.080  0.1515E-05  0.2623E+00
      1.198  0.4942E-04  0.2623E+00
      1.315  0.8420E-03  0.2624E+00
      1.432  0.7684E-02  0.2633E+00
      1.549  0.3940E-01  0.2679E+00
      1.667  0.1223E+00  0.2823E+00
      1.784  0.2458E+00  0.3111E+00
      1.901  0.3179E+00  0.3484E+00
      2.018  0.2473E+00  0.3774E+00
      2.136  0.1082E+00  0.3901E+00
      2.253  0.2552E-01  0.3930E+00
      2.370  0.3184E-02  0.3934E+00
      2.488  0.2077E-03  0.3934E+00
      2.605  0.7037E-05  0.3934E+00
      2.722  0.1232E-06  0.3934E+00
      2.839  0.1111E-08  0.3934E+00
      2.957  0.5143E-11  0.3934E+00
      3.074  0.1220E-13  0.3934E+00
      3.191  0.0000E+00  0.3934E+00
      3.308  0.0000E+00  0.3934E+00
      3.426  0.0000E+00  0.3934E+00
      3.543  0.0000E+00  0.3934E+00
      3.660  0.0000E+00  0.3934E+00
      3.777  0.0000E+00  0.3934E+00
      3.895  0.0000E+00  0.3934E+00
