    2    2   61    1
  0.2560000E+03  0.8000000E-09  0.8000000E-09  0.8000000E-09  0.2000000E-16
   1.0000000000000000E-004
  CAR 
 CO dimer in a box                       
     10      1     12

  0.0000000E+00  0.0000000E+00  0.0000000E+00  0.1000000E+01
    1      -29.285170   1.000000
    2      -13.749557   1.000000
    3      -11.643078   1.000000
    4      -11.643078   1.000000
    5       -8.721195   1.000000
    6       -1.657686   0.000000
    7       -1.657686   0.000000
    8       -0.257469   0.000000
    9        1.702215   0.000000
   10        1.867813   0.000000
   11        1.867813   0.000000
   12        1.894714   0.000000
