 vasp.5.4.4.18Apr17-6-g9f103f2a35 (build Dec 28 2021 15:39:15) complex           
 executed on             LinuxGNU date 2021.12.31  11:01:03
 running on    4 total cores
 distrk:  each k-point on    4 cores,    1 groups
 distr:  one band on NCORES_PER_BAND=   1 cores,    4 groups


--------------------------------------------------------------------------------------------------------


 INCAR:
 POTCAR:   PAW_RPBE O 08Apr2002                   
 POTCAR:   PAW_RPBE C 08Apr2002                   
 POTCAR:   PAW_RPBE O 08Apr2002                   
   VRHFIN =O: s2p4                                                              
   LEXCH  = PE                                                                  
   EATOM  =   432.3788 eV,   31.7789 Ry                                         
                                                                                
   TITEL  = PAW_RPBE O 08Apr2002                                                
   LULTRA =        F    use ultrasoft PP ?                                      
   IUNSCR =        0    unscreen: 0-lin 1-nonlin 2-no                           
   RPACOR =     .000    partial core radius                                     
   POMASS =   16.000; ZVAL   =    6.000    mass and valenz                      
   RCORE  =    1.520    outmost cutoff radius                                   
   RWIGS  =    1.550; RWIGS  =     .820    wigner-seitz radius (au A)           
   ENMAX  =  400.000; ENMIN  =  300.000 eV                                      
   ICORE  =        2    local potential                                         
   LCOR   =        T    correct aug charges                                     
   LPAW   =        T    paw PP                                                  
   EAUG   =  605.392                                                            
   DEXC   =     .000                                                            
   RMAX   =    2.264    core radius for proj-oper                               
   RAUG   =    1.300    factor for augmentation sphere                          
   RDEP   =    1.550    radius for radial grids                                 
   QCUT   =   -5.520; QGAM   =   11.041    optimization parameters              
                                                                                
   Description                                                                  
     l     E      TYP  RCUT    TYP  RCUT                                        
     0   .000     23  1.200                                                     
     0  -.700     23  1.200                                                     
     1   .000     23  1.520                                                     
     1   .600     23  1.520                                                     
     2   .000      7  1.500                                                     
  local pseudopotential read in
  atomic valenz-charges read in
  non local Contribution for L=           0  read in
    real space projection operators read in
  non local Contribution for L=           0  read in
    real space projection operators read in
  non local Contribution for L=           1  read in
    real space projection operators read in
  non local Contribution for L=           1  read in
    real space projection operators read in
    PAW grid and wavefunctions read in

   number of l-projection  operators is LMAX  =           4
   number of lm-projection operators is LMMAX =           8

 POTCAR:   PAW_RPBE C 08Apr2002                   
   VRHFIN =C: s2p2                                                              
   LEXCH  = PE                                                                  
   EATOM  =   147.1560 eV,   10.8157 Ry                                         
                                                                                
   TITEL  = PAW_RPBE C 08Apr2002                                                
   LULTRA =        F    use ultrasoft PP ?                                      
   IUNSCR =        0    unscreen: 0-lin 1-nonlin 2-no                           
   RPACOR =     .000    partial core radius                                     
   POMASS =   12.011; ZVAL   =    4.000    mass and valenz                      
   RCORE  =    1.500    outmost cutoff radius                                   
   RWIGS  =    1.630; RWIGS  =     .863    wigner-seitz radius (au A)           
   ENMAX  =  400.000; ENMIN  =  300.000 eV                                      
   ICORE  =        2    local potential                                         
   LCOR   =        T    correct aug charges                                     
   LPAW   =        T    paw PP                                                  
   EAUG   =  644.873                                                            
   DEXC   =     .000                                                            
   RMAX   =    2.266    core radius for proj-oper                               
   RAUG   =    1.300    factor for augmentation sphere                          
   RDEP   =    1.501    radius for radial grids                                 
   RDEPT  =    1.300    core radius for aug-charge                              
   QCUT   =   -5.516; QGAM   =   11.032    optimization parameters              
                                                                                
   Description                                                                  
     l     E      TYP  RCUT    TYP  RCUT                                        
     0   .000     23  1.200                                                     
     0   .000     23  1.200                                                     
     1   .000     23  1.500                                                     
     1  2.500     23  1.500                                                     
     2   .000      7  1.500                                                     
  local pseudopotential read in
  atomic valenz-charges read in
  non local Contribution for L=           0  read in
    real space projection operators read in
  non local Contribution for L=           0  read in
    real space projection operators read in
  non local Contribution for L=           1  read in
    real space projection operators read in
  non local Contribution for L=           1  read in
    real space projection operators read in
    PAW grid and wavefunctions read in

   number of l-projection  operators is LMAX  =           4
   number of lm-projection operators is LMMAX =           8

 PAW_RPBE O 08Apr2002                   :
 energy of atom  1       EATOM= -432.3788
 kinetic energy error for atom=    0.1156 (will be added to EATOM!!)
 PAW_RPBE C 08Apr2002                   :
 energy of atom  2       EATOM= -147.1560
 kinetic energy error for atom=    0.0288 (will be added to EATOM!!)


 POSCAR: O atom in a box                         
  positions in cartesian coordinates
  No initial velocities read in
 exchange correlation table for  LEXCH =        8
   RHO(1)=    0.500       N(1)  =     2000
   RHO(2)=  100.500       N(2)  =     4000



--------------------------------------------------------------------------------------------------------


 ion  position               nearest neighbor table
   1  0.000  0.000  0.000-   2 1.14
   2  0.000  0.000  0.143-   1 1.14

  LATTYP: Found a simple cubic cell.
 ALAT       =     8.0000000000
  
  Lattice vectors:
  
 A1 = (   8.0000000000,   0.0000000000,   0.0000000000)
 A2 = (   0.0000000000,   8.0000000000,   0.0000000000)
 A3 = (   0.0000000000,   0.0000000000,   8.0000000000)


Analysis of symmetry for initial positions (statically):
=====================================================================
 Subroutine PRICEL returns:
 Original cell was already a primitive cell.
 

 Routine SETGRP: Setting up the symmetry group for a 
 simple cubic supercell.


 Subroutine GETGRP returns: Found  8 space group operations
 (whereof  8 operations were pure point group operations)
 out of a pool of 48 trial point group operations.


The static configuration has the point symmetry C_4v.


Analysis of symmetry for dynamics (positions and initial velocities):
=====================================================================
 Subroutine PRICEL returns:
 Original cell was already a primitive cell.
 

 Routine SETGRP: Setting up the symmetry group for a 
 simple cubic supercell.


 Subroutine GETGRP returns: Found  8 space group operations
 (whereof  8 operations were pure point group operations)
 out of a pool of 48 trial point group operations.


The dynamic configuration has the point symmetry C_4v.


Analysis of constrained symmetry for selective dynamics:
=====================================================================
 Subroutine PRICEL returns:
 Original cell was already a primitive cell.
 

 Routine SETGRP: Setting up the symmetry group for a 
 simple cubic supercell.


 Subroutine GETGRP returns: Found  8 space group operations
 (whereof  8 operations were pure point group operations)
 out of a pool of 48 trial point group operations.


The constrained configuration has the point symmetry C_4v.


 Subroutine INISYM returns: Found  8 space group operations
 (whereof  8 operations are pure point group operations),
 and found     1 'primitive' translations



 KPOINTS: Gamma-point only                        
  k-points in reciprocal lattice
Space group operators:
 irot       det(A)        alpha          n_x          n_y          n_z        tau_x        tau_y        tau_z
    1     1.000000     0.000000     1.000000     0.000000     0.000000     0.000000     0.000000     0.000000
    2     1.000000    90.000000     0.000000     0.000000    -1.000000     0.000000     0.000000     0.000000
    3     1.000000   180.000000     0.000000     0.000000     1.000000     0.000000     0.000000     0.000000
    4     1.000000    90.000000     0.000000     0.000000     1.000000     0.000000     0.000000     0.000000
    5    -1.000000   180.000000     1.000000     0.000000     0.000000     0.000000     0.000000     0.000000
    6    -1.000000   180.000000     0.707107     0.707107     0.000000     0.000000     0.000000     0.000000
    7    -1.000000   180.000000     0.000000     1.000000     0.000000     0.000000     0.000000     0.000000
    8    -1.000000   180.000000     0.707107    -0.707107     0.000000     0.000000     0.000000     0.000000

 ----------------------------------------------------------------------------- 
|                                                                             |
|           W    W    AA    RRRRR   N    N  II  N    N   GGGG   !!!           |
|           W    W   A  A   R    R  NN   N  II  NN   N  G    G  !!!           |
|           W    W  A    A  R    R  N N  N  II  N N  N  G       !!!           |
|           W WW W  AAAAAA  RRRRR   N  N N  II  N  N N  G  GGG   !            |
|           WW  WW  A    A  R   R   N   NN  II  N   NN  G    G                |
|           W    W  A    A  R    R  N    N  II  N    N   GGGG   !!!           |
|                                                                             |
|      Your generating k-point grid is not commensurate to the symmetry       |
|      of the lattice.  This can cause   slow convergence with respect        |
|      to k-points for HF type calculations                                   |
|      suggested SOLUTIONS:                                                   |
|       ) if not already the case, use automatic k-point generation           |
|       ) shift your grid to Gamma (G) (e.g. required for hex or fcc lattice) |
|                                                                             |
 ----------------------------------------------------------------------------- 

 
 Subroutine IBZKPT_HF returns following result:
 ==============================================
 
 Found      1 k-points in 1st BZ
 the following      1 k-points will be used (e.g. in the exchange kernel)
 Following reciprocal coordinates:   # in IRBZ
  0.000000  0.000000  0.000000    1.00000000   1 t-inv F


--------------------------------------------------------------------------------------------------------




 Dimension of arrays:
   k-points           NKPTS =      1   k-points in BZ     NKDIM =      1   number of bands    NBANDS=     12
   number of dos      NEDOS =    301   number of ions     NIONS =      2
   non local maximal  LDIM  =      4   non local SUM 2l+1 LMDIM =      8
   total plane-waves  NPLWV =  64000
   max r-space proj   IRMAX =      1   max aug-charges    IRDMAX=   1821
   dimension x,y,z NGX =    40 NGY =   40 NGZ =   40
   dimension x,y,z NGXF=    80 NGYF=   80 NGZF=   80
   support grid    NGXF=    80 NGYF=   80 NGZF=   80
   ions per type =               1   1
   NGX,Y,Z   is equivalent  to a cutoff of   8.31,  8.31,  8.31 a.u.
   NGXF,Y,Z  is equivalent  to a cutoff of  16.62, 16.62, 16.62 a.u.

 SYSTEM =  CO dimer in a box                       
 POSCAR =  O atom in a box                         

 Startparameter for this run:
   NWRITE =      2    write-flag & timer
   PREC   = normal    normal or accurate (medium, high low for compatibility)
   ISTART =      0    job   : 0-new  1-cont  2-samecut
   ICHARG =      2    charge: 1-file 2-atom 10-const
   ISPIN  =      1    spin polarized calculation?
   LNONCOLLINEAR =      F non collinear calculations
   LSORBIT =      F    spin-orbit coupling
   INIWAV =      1    electr: 0-lowe 1-rand  2-diag
   LASPH  =      F    aspherical Exc in radial PAW
   METAGGA=      F    non-selfconsistent MetaGGA calc.

 Electronic Relaxation 1
   ENCUT  =  400.0 eV  29.40 Ry    5.42 a.u.  13.05 13.05 13.05*2*pi/ulx,y,z
   ENINI  =  400.0     initial cutoff
   ENAUG  =  644.9 eV  augmentation charge cutoff
   NELM   =     60;   NELMIN=  2; NELMDL= -5     # of ELM steps 
   EDIFF  = 0.1E-05   stopping-criterion for ELM
   LREAL  =      F    real-space projection
   NLSPLINE    = F    spline interpolate recip. space projectors
   LCOMPAT=      F    compatible to vasp.4.4
   GGA_COMPAT  = T    GGA compatible to vasp.4.4-vasp.4.6
   LMAXPAW     = -100 max onsite density
   LMAXMIX     =    2 max onsite mixed and CHGCAR
   VOSKOWN=      0    Vosko Wilk Nusair interpolation
   ROPT   =    0.00000   0.00000
 Ionic relaxation
   EDIFFG = 0.1E-04   stopping-criterion for IOM
   NSW    =     61    number of steps for IOM
   NBLOCK =      1;   KBLOCK =     61    inner block; outer block 
   IBRION =      5    ionic relax: 0-MD 1-quasi-New 2-CG
   NFREE  =      2    steps in history (QN), initial steepest desc. (CG)
   ISIF   =      2    stress and relaxation
   IWAVPR =     11    prediction:  0-non 1-charg 2-wave 3-comb
   ISYM   =      2    0-nonsym 1-usesym 2-fastsym
   LCORR  =      T    Harris-Foulkes like correction to forces

   POTIM  = 0.0200    time-step for ionic-motion
   TEIN   =    0.0    initial temperature
   TEBEG  =    0.0;   TEEND  =   0.0 temperature during run
   SMASS  =  -3.00    Nose mass-parameter (am)
   estimated Nose-frequenzy (Omega)   =  0.10E-29 period in steps =****** mass=  -0.146E-26a.u.
   SCALEE = 1.0000    scale energy and forces
   NPACO  =    256;   APACO  = 16.0  distance and # of slots for P.C.
   PSTRESS=    0.0 pullay stress

  Mass of Ions in am
   POMASS =  16.00 12.01
  Ionic Valenz
   ZVAL   =   6.00  4.00
  Atomic Wigner-Seitz radii
   RWIGS  =  -1.00 -1.00
  virtual crystal weights 
   VCA    =   1.00  1.00
   NELECT =      10.0000    total number of electrons
   NUPDOWN=      -1.0000    fix difference up-down

 DOS related values:
   EMIN   =  10.00;   EMAX   =-10.00  energy-range for DOS
   EFERMI =   0.00
   ISMEAR =     0;   SIGMA  =   0.20  broadening in eV -4-tet -1-fermi 0-gaus

 Electronic relaxation 2 (details)
   IALGO  =     38    algorithm
   LDIAG  =      T    sub-space diagonalisation (order eigenvalues)
   LSUBROT=      F    optimize rotation matrix (better conditioning)
   TURBO    =      0    0=normal 1=particle mesh
   IRESTART =      0    0=no restart 2=restart with 2 vectors
   NREBOOT  =      0    no. of reboots
   NMIN     =      0    reboot dimension
   EREF     =   0.00    reference energy to select bands
   IMIX   =      4    mixing-type and parameters
     AMIX     =   0.40;   BMIX     =  1.00
     AMIX_MAG =   1.60;   BMIX_MAG =  1.00
     AMIN     =   0.10
     WC   =   100.;   INIMIX=   1;  MIXPRE=   1;  MAXMIX= -45

 Intra band minimization:
   WEIMIN = 0.0010     energy-eigenvalue tresh-hold
   EBREAK =  0.21E-07  absolut break condition
   DEPER  =   0.30     relativ break condition  

   TIME   =   0.40     timestep for ELM

  volume/ion in A,a.u.               =     256.00      1727.57
  Fermi-wavevector in a.u.,A,eV,Ry     =   0.440878  0.833138  2.644608  0.194373
  Thomas-Fermi vector in A             =   1.415836

 Write flags
   LWAVE        =      T    write WAVECAR
   LDOWNSAMPLE  =      F    k-point downsampling of WAVECAR
   LCHARG       =      T    write CHGCAR
   LVTOT        =      F    write LOCPOT, total local potential
   LVHAR        =      F    write LOCPOT, Hartree potential only
   LELF         =      F    write electronic localiz. function (ELF)
   LORBIT       =      0    0 simple, 1 ext, 2 COOP (PROOUT), +10 PAW based schemes


 Dipole corrections
   LMONO  =      F    monopole corrections only (constant potential shift)
   LDIPOL =      F    correct potential (dipole corrections)
   IDIPOL =      0    1-x, 2-y, 3-z, 4-all directions 
   EPSILON=  1.0000000 bulk dielectric constant

 Exchange correlation treatment:
   GGA     =    --    GGA type
   LEXCH   =     8    internal setting for exchange type
   VOSKOWN=      0    Vosko Wilk Nusair interpolation
   LHFCALC =     F    Hartree Fock is set to
   LHFONE  =     F    Hartree Fock one center treatment
   AEXX    =    0.0000 exact exchange contribution

 Linear response parameters
   LEPSILON=     F    determine dielectric tensor
   LRPA    =     F    only Hartree local field effects (RPA)
   LNABLA  =     F    use nabla operator in PAW spheres
   LVEL    =     F    velocity operator in full k-point grid
   LINTERFAST=   F  fast interpolation
   KINTER  =     0    interpolate to denser k-point grid
   CSHIFT  =0.1000    complex shift for real part using Kramers Kronig
   OMEGAMAX=  -1.0    maximum frequency
   DEG_THRESHOLD= 0.2000000E-02 threshold for treating states as degnerate
   RTIME   =   -0.100 relaxation time in fs
  (WPLASMAI=    0.000 imaginary part of plasma frequency in eV, 0.658/RTIME)
   DFIELD  = 0.0000000 0.0000000 0.0000000 field for delta impulse in time

 Orbital magnetization related:
   ORBITALMAG=     F  switch on orbital magnetization
   LCHIMAG   =     F  perturbation theory with respect to B field
   DQ        =  0.001000  dq finite difference perturbation B field
   LLRAUG    =     F  two centre corrections for induced B field



--------------------------------------------------------------------------------------------------------


 finite differences
   using selective dynamics as specified on POSCAR
   WARNING: If single coordinates had been selected the selection of coordinates
            is made according to the corresponding   d i r e c t   coordinates!
            Don't support selection of single cartesian coordinates -- sorry ... !
 charge density and potential will be updated during run
 non-spin polarized calculation
 Variant of blocked Davidson
 Davidson routine will perform the subspace rotation
 perform sub-space diagonalisation
    after iterative eigenvector-optimisation
 modified Broyden-mixing scheme, WC =      100.0
 initial mixing is a Kerker type mixing with AMIX =  0.4000 and BMIX =      1.0000
 Hartree-type preconditioning will be used
 using additional bands            7
 reciprocal scheme for non local part
 calculate Harris-corrections to forces   (improved forces if not selfconsistent)
 use gradient corrections 
 use of overlap-Matrix (Vanderbilt PP)
 Gauss-broadening in eV      SIGMA  =   0.20


--------------------------------------------------------------------------------------------------------


  energy-cutoff  :      400.00
  volume of cell :      512.00
      direct lattice vectors                 reciprocal lattice vectors
     8.000000000  0.000000000  0.000000000     0.125000000  0.000000000  0.000000000
     0.000000000  8.000000000  0.000000000     0.000000000  0.125000000  0.000000000
     0.000000000  0.000000000  8.000000000     0.000000000  0.000000000  0.125000000

  length of vectors
     8.000000000  8.000000000  8.000000000     0.125000000  0.125000000  0.125000000



 k-points in units of 2pi/SCALE and weight: Gamma-point only                        
   0.00000000  0.00000000  0.00000000       1.000

 k-points in reciprocal lattice and weights: Gamma-point only                        
   0.00000000  0.00000000  0.00000000       1.000

 position of ions in fractional coordinates (direct lattice) 
   0.00000000  0.00000000  0.00000000
   0.00000000  0.00000000  0.14287500

 position of ions in cartesian coordinates  (Angst):
   0.00000000  0.00000000  0.00000000
   0.00000000  0.00000000  1.14300000



--------------------------------------------------------------------------------------------------------


 k-point  1 :   0.0000 0.0000 0.0000  plane waves:    9315

 maximum and minimum number of plane-waves per node :      9315     9315

 maximum number of plane-waves:      9315
 maximum index in each direction: 
   IXMAX=   13   IYMAX=   13   IZMAX=   13
   IXMIN=  -13   IYMIN=  -13   IZMIN=  -13


 serial   3D FFT for wavefunctions
 parallel 3D FFT for charge:
    minimum data exchange during FFTs selected (reduces bandwidth)


 total amount of memory used by VASP MPI-rank0    46485. kBytes
=======================================================================

   base      :      30000. kBytes
   nonl-proj :       1490. kBytes
   fftplans  :       4661. kBytes
   grid      :       9881. kBytes
   one-center:          6. kBytes
   wavefun   :        447. kBytes

     INWAV:  cpu time    0.0000: real time    0.0000
 Broyden mixing: mesh for mixing (old mesh)
   NGX = 27   NGY = 27   NGZ = 27
  (NGX  = 80   NGY  = 80   NGZ  = 80)
  gives a total of  19683 points

 initial charge density was supplied:
 charge density of overlapping atoms calculated
 number of electron      10.0000000 magnetization 
 keeping initial charge density in first step


--------------------------------------------------------------------------------------------------------


 Maximum index for augmentation-charges          395 (set IRDMAX)


--------------------------------------------------------------------------------------------------------


 First call to EWALD:  gamma=   0.222
 Maximum number of real-space cells 3x 3x 3
 Maximum number of reciprocal cells 3x 3x 3

    FEWALD:  cpu time    0.0003: real time    0.0003


--------------------------------------- Iteration      1(   1)  ---------------------------------------


    POTLOK:  cpu time    0.0745: real time    0.0745
    SETDIJ:  cpu time    0.0006: real time    0.0006
     EDDAV:  cpu time    0.0325: real time    0.0325
       DOS:  cpu time    0.0001: real time    0.0001
    --------------------------------------------
      LOOP:  cpu time    0.1077: real time    0.1077

 eigenvalue-minimisations  :    24
 total energy-change (2. order) : 0.7784996E+02  (-0.2147202E+03)
 number of electron      10.0000000 magnetization 
 augmentation part       10.0000000 magnetization 

 Free energy of the ion-electron system (eV)
  ---------------------------------------------------
  alpha Z        PSCENC =         0.85010715
  Ewald energy   TEWEN  =        48.90784304
  -Hartree energ DENC   =      -512.54826743
  -exchange      EXHF   =         0.00000000
  -V(xc)+E(xc)   XCENC  =        39.84835132
  PAW double counting   =       283.82984571     -286.83001101
  entropy T*S    EENTRO =        -0.00000038
  eigenvalues    EBANDS =       -75.59832538
  atomic energy  EATOM  =       579.39041991
  Solvation  Ediel_sol  =         0.00000000
  ---------------------------------------------------
  free energy    TOTEN  =        77.84996292 eV

  energy without entropy =       77.84996330  energy(sigma->0) =       77.84996311


--------------------------------------------------------------------------------------------------------




--------------------------------------- Iteration      1(   2)  ---------------------------------------


     EDDAV:  cpu time    0.0497: real time    0.0497
       DOS:  cpu time    0.0001: real time    0.0001
    --------------------------------------------
      LOOP:  cpu time    0.0498: real time    0.0498

 eigenvalue-minimisations  :    40
 total energy-change (2. order) :-0.7964698E+02  (-0.7891260E+02)
 number of electron      10.0000000 magnetization 
 augmentation part       10.0000000 magnetization 

 Free energy of the ion-electron system (eV)
  ---------------------------------------------------
  alpha Z        PSCENC =         0.85010715
  Ewald energy   TEWEN  =        48.90784304
  -Hartree energ DENC   =      -512.54826743
  -exchange      EXHF   =         0.00000000
  -V(xc)+E(xc)   XCENC  =        39.84835132
  PAW double counting   =       283.82984571     -286.83001101
  entropy T*S    EENTRO =        -0.00000000
  eigenvalues    EBANDS =      -155.24530767
  atomic energy  EATOM  =       579.39041991
  Solvation  Ediel_sol  =         0.00000000
  ---------------------------------------------------
  free energy    TOTEN  =        -1.79701899 eV

  energy without entropy =       -1.79701899  energy(sigma->0) =       -1.79701899


--------------------------------------------------------------------------------------------------------




--------------------------------------- Iteration      1(   3)  ---------------------------------------


     EDDAV:  cpu time    0.0456: real time    0.0456
       DOS:  cpu time    0.0001: real time    0.0001
    --------------------------------------------
      LOOP:  cpu time    0.0456: real time    0.0456

 eigenvalue-minimisations  :    36
 total energy-change (2. order) :-0.1371110E+02  (-0.1370467E+02)
 number of electron      10.0000000 magnetization 
 augmentation part       10.0000000 magnetization 

 Free energy of the ion-electron system (eV)
  ---------------------------------------------------
  alpha Z        PSCENC =         0.85010715
  Ewald energy   TEWEN  =        48.90784304
  -Hartree energ DENC   =      -512.54826743
  -exchange      EXHF   =         0.00000000
  -V(xc)+E(xc)   XCENC  =        39.84835132
  PAW double counting   =       283.82984571     -286.83001101
  entropy T*S    EENTRO =        -0.00000000
  eigenvalues    EBANDS =      -168.95640289
  atomic energy  EATOM  =       579.39041991
  Solvation  Ediel_sol  =         0.00000000
  ---------------------------------------------------
  free energy    TOTEN  =       -15.50811420 eV

  energy without entropy =      -15.50811420  energy(sigma->0) =      -15.50811420


--------------------------------------------------------------------------------------------------------




--------------------------------------- Iteration      1(   4)  ---------------------------------------


     EDDAV:  cpu time    0.0339: real time    0.0340
       DOS:  cpu time    0.0001: real time    0.0001
    --------------------------------------------
      LOOP:  cpu time    0.0340: real time    0.0340

 eigenvalue-minimisations  :    24
 total energy-change (2. order) :-0.8658787E-01  (-0.8658472E-01)
 number of electron      10.0000000 magnetization 
 augmentation part       10.0000000 magnetization 

 Free energy of the ion-electron system (eV)
  ---------------------------------------------------
  alpha Z        PSCENC =         0.85010715
  Ewald energy   TEWEN  =        48.90784304
  -Hartree energ DENC   =      -512.54826743
  -exchange      EXHF   =         0.00000000
  -V(xc)+E(xc)   XCENC  =        39.84835132
  PAW double counting   =       283.82984571     -286.83001101
  entropy T*S    EENTRO =        -0.00000000
  eigenvalues    EBANDS =      -169.04299076
  atomic energy  EATOM  =       579.39041991
  Solvation  Ediel_sol  =         0.00000000
  ---------------------------------------------------
  free energy    TOTEN  =       -15.59470207 eV

  energy without entropy =      -15.59470207  energy(sigma->0) =      -15.59470207


--------------------------------------------------------------------------------------------------------




--------------------------------------- Iteration      1(   5)  ---------------------------------------


     EDDAV:  cpu time    0.0504: real time    0.0504
       DOS:  cpu time    0.0001: real time    0.0001
    CHARGE:  cpu time    0.0138: real time    0.0138
    MIXING:  cpu time    0.0028: real time    0.0028
    --------------------------------------------
      LOOP:  cpu time    0.0671: real time    0.0671

 eigenvalue-minimisations  :    40
 total energy-change (2. order) :-0.6697008E-03  (-0.6696940E-03)
 number of electron      10.0000114 magnetization 
 augmentation part        0.7220144 magnetization 

 Broyden mixing:
  rms(total) = 0.61799E+00    rms(broyden)= 0.61673E+00
  rms(prec ) = 0.82916E+00
  weight for this iteration     100.00

 Free energy of the ion-electron system (eV)
  ---------------------------------------------------
  alpha Z        PSCENC =         0.85010715
  Ewald energy   TEWEN  =        48.90784304
  -Hartree energ DENC   =      -512.54826743
  -exchange      EXHF   =         0.00000000
  -V(xc)+E(xc)   XCENC  =        39.84835132
  PAW double counting   =       283.82984571     -286.83001101
  entropy T*S    EENTRO =        -0.00000000
  eigenvalues    EBANDS =      -169.04366046
  atomic energy  EATOM  =       579.39041991
  Solvation  Ediel_sol  =         0.00000000
  ---------------------------------------------------
  free energy    TOTEN  =       -15.59537177 eV

  energy without entropy =      -15.59537177  energy(sigma->0) =      -15.59537177


--------------------------------------------------------------------------------------------------------




--------------------------------------- Iteration      1(   6)  ---------------------------------------


    POTLOK:  cpu time    0.0640: real time    0.0640
    SETDIJ:  cpu time    0.0006: real time    0.0006
     EDDAV:  cpu time    0.0366: real time    0.0366
       DOS:  cpu time    0.0001: real time    0.0001
    CHARGE:  cpu time    0.0100: real time    0.0100
    MIXING:  cpu time    0.0024: real time    0.0024
    --------------------------------------------
      LOOP:  cpu time    0.1138: real time    0.1138

 eigenvalue-minimisations  :    24
 total energy-change (2. order) : 0.6368919E+00  (-0.3416403E+00)
 number of electron      10.0000099 magnetization 
 augmentation part        0.6433361 magnetization 

 Broyden mixing:
  rms(total) = 0.31880E+00    rms(broyden)= 0.31844E+00
  rms(prec ) = 0.41213E+00
  weight for this iteration     100.00

 eigenvalues of (default mixing * dielectric matrix)
  average eigenvalue GAMMA=   1.0058
  1.0058

 Free energy of the ion-electron system (eV)
  ---------------------------------------------------
  alpha Z        PSCENC =         0.85010715
  Ewald energy   TEWEN  =        48.90784304
  -Hartree energ DENC   =      -526.39864420
  -exchange      EXHF   =         0.00000000
  -V(xc)+E(xc)   XCENC  =        40.65660626
  PAW double counting   =       331.51447106     -334.68051882
  entropy T*S    EENTRO =        -0.00000000
  eigenvalues    EBANDS =      -155.19876427
  atomic energy  EATOM  =       579.39041991
  Solvation  Ediel_sol  =         0.00000000
  ---------------------------------------------------
  free energy    TOTEN  =       -14.95847989 eV

  energy without entropy =      -14.95847989  energy(sigma->0) =      -14.95847989


--------------------------------------------------------------------------------------------------------




--------------------------------------- Iteration      1(   7)  ---------------------------------------


    POTLOK:  cpu time    0.0629: real time    0.0629
    SETDIJ:  cpu time    0.0006: real time    0.0006
     EDDAV:  cpu time    0.0432: real time    0.0432
       DOS:  cpu time    0.0001: real time    0.0001
    CHARGE:  cpu time    0.0097: real time    0.0097
    MIXING:  cpu time    0.0024: real time    0.0024
    --------------------------------------------
      LOOP:  cpu time    0.1190: real time    0.1190

 eigenvalue-minimisations  :    36
 total energy-change (2. order) : 0.1280501E+00  (-0.6068923E-01)
 number of electron      10.0000103 magnetization 
 augmentation part        0.6636808 magnetization 

 Broyden mixing:
  rms(total) = 0.16267E+00    rms(broyden)= 0.16266E+00
  rms(prec ) = 0.20768E+00
  weight for this iteration     100.00

 eigenvalues of (default mixing * dielectric matrix)
  average eigenvalue GAMMA=   1.4113
  0.7518  2.0708

 Free energy of the ion-electron system (eV)
  ---------------------------------------------------
  alpha Z        PSCENC =         0.85010715
  Ewald energy   TEWEN  =        48.90784304
  -Hartree energ DENC   =      -528.15289428
  -exchange      EXHF   =         0.00000000
  -V(xc)+E(xc)   XCENC  =        40.78144606
  PAW double counting   =       347.68163478     -350.82045915
  entropy T*S    EENTRO =        -0.00000000
  eigenvalues    EBANDS =      -153.46852731
  atomic energy  EATOM  =       579.39041991
  Solvation  Ediel_sol  =         0.00000000
  ---------------------------------------------------
  free energy    TOTEN  =       -14.83042982 eV

  energy without entropy =      -14.83042982  energy(sigma->0) =      -14.83042982


--------------------------------------------------------------------------------------------------------




--------------------------------------- Iteration      1(   8)  ---------------------------------------


    POTLOK:  cpu time    0.0619: real time    0.0619
    SETDIJ:  cpu time    0.0006: real time    0.0006
     EDDAV:  cpu time    0.0319: real time    0.0319
       DOS:  cpu time    0.0001: real time    0.0001
    CHARGE:  cpu time    0.0097: real time    0.0097
    MIXING:  cpu time    0.0026: real time    0.0026
    --------------------------------------------
      LOOP:  cpu time    0.1068: real time    0.1068

 eigenvalue-minimisations  :    24
 total energy-change (2. order) : 0.3707182E-01  (-0.1295804E-01)
 number of electron      10.0000102 magnetization 
 augmentation part        0.6542849 magnetization 

 Broyden mixing:
  rms(total) = 0.37761E-01    rms(broyden)= 0.37741E-01
  rms(prec ) = 0.51347E-01
  weight for this iteration     100.00

 eigenvalues of (default mixing * dielectric matrix)
  average eigenvalue GAMMA=   1.5539
  2.3068  1.6218  0.7331

 Free energy of the ion-electron system (eV)
  ---------------------------------------------------
  alpha Z        PSCENC =         0.85010715
  Ewald energy   TEWEN  =        48.90784304
  -Hartree energ DENC   =      -532.58541213
  -exchange      EXHF   =         0.00000000
  -V(xc)+E(xc)   XCENC  =        41.05220830
  PAW double counting   =       372.84152820     -375.98195382
  entropy T*S    EENTRO =        -0.00000000
  eigenvalues    EBANDS =      -149.26809864
  atomic energy  EATOM  =       579.39041991
  Solvation  Ediel_sol  =         0.00000000
  ---------------------------------------------------
  free energy    TOTEN  =       -14.79335799 eV

  energy without entropy =      -14.79335799  energy(sigma->0) =      -14.79335799


--------------------------------------------------------------------------------------------------------




--------------------------------------- Iteration      1(   9)  ---------------------------------------


    POTLOK:  cpu time    0.0621: real time    0.0621
    SETDIJ:  cpu time    0.0006: real time    0.0006
     EDDAV:  cpu time    0.0360: real time    0.0360
       DOS:  cpu time    0.0001: real time    0.0001
    CHARGE:  cpu time    0.0097: real time    0.0097
    MIXING:  cpu time    0.0026: real time    0.0026
    --------------------------------------------
      LOOP:  cpu time    0.1112: real time    0.1112

 eigenvalue-minimisations  :    28
 total energy-change (2. order) : 0.7984495E-03  (-0.6704180E-03)
 number of electron      10.0000101 magnetization 
 augmentation part        0.6521003 magnetization 

 Broyden mixing:
  rms(total) = 0.98728E-02    rms(broyden)= 0.98633E-02
  rms(prec ) = 0.18032E-01
  weight for this iteration     100.00

 eigenvalues of (default mixing * dielectric matrix)
  average eigenvalue GAMMA=   1.4954
  0.7442  1.0568  2.4071  1.7736

 Free energy of the ion-electron system (eV)
  ---------------------------------------------------
  alpha Z        PSCENC =         0.85010715
  Ewald energy   TEWEN  =        48.90784304
  -Hartree energ DENC   =      -532.63268902
  -exchange      EXHF   =         0.00000000
  -V(xc)+E(xc)   XCENC  =        41.05296163
  PAW double counting   =       376.84525426     -379.95959815
  entropy T*S    EENTRO =        -0.00000000
  eigenvalues    EBANDS =      -149.24685836
  atomic energy  EATOM  =       579.39041991
  Solvation  Ediel_sol  =         0.00000000
  ---------------------------------------------------
  free energy    TOTEN  =       -14.79255954 eV

  energy without entropy =      -14.79255954  energy(sigma->0) =      -14.79255954


--------------------------------------------------------------------------------------------------------




--------------------------------------- Iteration      1(  10)  ---------------------------------------


    POTLOK:  cpu time    0.0610: real time    0.0610
    SETDIJ:  cpu time    0.0006: real time    0.0006
     EDDAV:  cpu time    0.0326: real time    0.0326
       DOS:  cpu time    0.0001: real time    0.0001
    CHARGE:  cpu time    0.0099: real time    0.0099
    MIXING:  cpu time    0.0027: real time    0.0027
    --------------------------------------------
      LOOP:  cpu time    0.1070: real time    0.1070

 eigenvalue-minimisations  :    24
 total energy-change (2. order) :-0.9197822E-03  (-0.1137954E-03)
 number of electron      10.0000102 magnetization 
 augmentation part        0.6532908 magnetization 

 Broyden mixing:
  rms(total) = 0.33960E-02    rms(broyden)= 0.33909E-02
  rms(prec ) = 0.97583E-02
  weight for this iteration     100.00

 eigenvalues of (default mixing * dielectric matrix)
  average eigenvalue GAMMA=   1.6098
  0.7463  0.9783  2.4366  2.1992  1.6886

 Free energy of the ion-electron system (eV)
  ---------------------------------------------------
  alpha Z        PSCENC =         0.85010715
  Ewald energy   TEWEN  =        48.90784304
  -Hartree energ DENC   =      -532.62613271
  -exchange      EXHF   =         0.00000000
  -V(xc)+E(xc)   XCENC  =        41.04985484
  PAW double counting   =       377.08463271     -380.18899957
  entropy T*S    EENTRO =        -0.00000000
  eigenvalues    EBANDS =      -149.26120468
  atomic energy  EATOM  =       579.39041991
  Solvation  Ediel_sol  =         0.00000000
  ---------------------------------------------------
  free energy    TOTEN  =       -14.79347933 eV

  energy without entropy =      -14.79347933  energy(sigma->0) =      -14.79347933


--------------------------------------------------------------------------------------------------------




--------------------------------------- Iteration      1(  11)  ---------------------------------------


    POTLOK:  cpu time    0.0609: real time    0.0609
    SETDIJ:  cpu time    0.0006: real time    0.0006
     EDDAV:  cpu time    0.0359: real time    0.0359
       DOS:  cpu time    0.0001: real time    0.0001
    CHARGE:  cpu time    0.0097: real time    0.0097
    MIXING:  cpu time    0.0027: real time    0.0027
    --------------------------------------------
      LOOP:  cpu time    0.1099: real time    0.1099

 eigenvalue-minimisations  :    28
 total energy-change (2. order) :-0.2217031E-02  (-0.5188946E-04)
 number of electron      10.0000102 magnetization 
 augmentation part        0.6531703 magnetization 

 Broyden mixing:
  rms(total) = 0.18714E-02    rms(broyden)= 0.18709E-02
  rms(prec ) = 0.41457E-02
  weight for this iteration     100.00

 eigenvalues of (default mixing * dielectric matrix)
  average eigenvalue GAMMA=   1.6675
  3.1820  2.4249  1.6357  0.7448  0.9527  1.0648

 Free energy of the ion-electron system (eV)
  ---------------------------------------------------
  alpha Z        PSCENC =         0.85010715
  Ewald energy   TEWEN  =        48.90784304
  -Hartree energ DENC   =      -533.00075292
  -exchange      EXHF   =         0.00000000
  -V(xc)+E(xc)   XCENC  =        41.06423281
  PAW double counting   =       377.02234620     -380.12215797
  entropy T*S    EENTRO =        -0.00000000
  eigenvalues    EBANDS =      -148.90773457
  atomic energy  EATOM  =       579.39041991
  Solvation  Ediel_sol  =         0.00000000
  ---------------------------------------------------
  free energy    TOTEN  =       -14.79569636 eV

  energy without entropy =      -14.79569636  energy(sigma->0) =      -14.79569636


--------------------------------------------------------------------------------------------------------




--------------------------------------- Iteration      1(  12)  ---------------------------------------


    POTLOK:  cpu time    0.0636: real time    0.0687
    SETDIJ:  cpu time    0.0007: real time    0.0007
     EDDAV:  cpu time    0.0401: real time    0.0401
       DOS:  cpu time    0.0001: real time    0.0001
    CHARGE:  cpu time    0.0098: real time    0.0098
    MIXING:  cpu time    0.0028: real time    0.0028
    --------------------------------------------
      LOOP:  cpu time    0.1171: real time    0.1222

 eigenvalue-minimisations  :    32
 total energy-change (2. order) :-0.6201375E-03  (-0.5746603E-05)
 number of electron      10.0000102 magnetization 
 augmentation part        0.6530007 magnetization 

 Broyden mixing:
  rms(total) = 0.10517E-02    rms(broyden)= 0.10514E-02
  rms(prec ) = 0.24221E-02
  weight for this iteration     100.00

 eigenvalues of (default mixing * dielectric matrix)
  average eigenvalue GAMMA=   1.9795
  4.5071  2.5533  2.3552  1.6721  0.7448  0.9735  1.0503

 Free energy of the ion-electron system (eV)
  ---------------------------------------------------
  alpha Z        PSCENC =         0.85010715
  Ewald energy   TEWEN  =        48.90784304
  -Hartree energ DENC   =      -533.01657963
  -exchange      EXHF   =         0.00000000
  -V(xc)+E(xc)   XCENC  =        41.06311736
  PAW double counting   =       376.85614493     -379.95599617
  entropy T*S    EENTRO =        -0.00000000
  eigenvalues    EBANDS =      -148.89137307
  atomic energy  EATOM  =       579.39041991
  Solvation  Ediel_sol  =         0.00000000
  ---------------------------------------------------
  free energy    TOTEN  =       -14.79631649 eV

  energy without entropy =      -14.79631649  energy(sigma->0) =      -14.79631649


--------------------------------------------------------------------------------------------------------




--------------------------------------- Iteration      1(  13)  ---------------------------------------


    POTLOK:  cpu time    0.0611: real time    0.0611
    SETDIJ:  cpu time    0.0006: real time    0.0006
     EDDAV:  cpu time    0.0348: real time    0.0348
       DOS:  cpu time    0.0001: real time    0.0001
    CHARGE:  cpu time    0.0097: real time    0.0097
    MIXING:  cpu time    0.0029: real time    0.0029
    --------------------------------------------
      LOOP:  cpu time    0.1092: real time    0.1092

 eigenvalue-minimisations  :    24
 total energy-change (2. order) :-0.8513325E-03  (-0.1042926E-04)
 number of electron      10.0000102 magnetization 
 augmentation part        0.6529918 magnetization 

 Broyden mixing:
  rms(total) = 0.36705E-03    rms(broyden)= 0.36692E-03
  rms(prec ) = 0.75503E-03
  weight for this iteration     100.00

 eigenvalues of (default mixing * dielectric matrix)
  average eigenvalue GAMMA=   2.0222
  5.4214  2.7552  2.4042  1.6159  0.7450  0.9637  1.1363  1.1363

 Free energy of the ion-electron system (eV)
  ---------------------------------------------------
  alpha Z        PSCENC =         0.85010715
  Ewald energy   TEWEN  =        48.90784304
  -Hartree energ DENC   =      -533.01885687
  -exchange      EXHF   =         0.00000000
  -V(xc)+E(xc)   XCENC  =        41.06144199
  PAW double counting   =       376.79193392     -379.89397077
  entropy T*S    EENTRO =        -0.00000000
  eigenvalues    EBANDS =      -148.88608619
  atomic energy  EATOM  =       579.39041991
  Solvation  Ediel_sol  =         0.00000000
  ---------------------------------------------------
  free energy    TOTEN  =       -14.79716783 eV

  energy without entropy =      -14.79716783  energy(sigma->0) =      -14.79716783


--------------------------------------------------------------------------------------------------------




--------------------------------------- Iteration      1(  14)  ---------------------------------------


    POTLOK:  cpu time    0.0619: real time    0.0619
    SETDIJ:  cpu time    0.0006: real time    0.0006
     EDDAV:  cpu time    0.0356: real time    0.0356
       DOS:  cpu time    0.0001: real time    0.0001
    CHARGE:  cpu time    0.0097: real time    0.0097
    MIXING:  cpu time    0.0031: real time    0.0031
    --------------------------------------------
      LOOP:  cpu time    0.1109: real time    0.1109

 eigenvalue-minimisations  :    28
 total energy-change (2. order) :-0.1363735E-03  (-0.7543573E-06)
 number of electron      10.0000102 magnetization 
 augmentation part        0.6530064 magnetization 

 Broyden mixing:
  rms(total) = 0.21719E-03    rms(broyden)= 0.21716E-03
  rms(prec ) = 0.41633E-03
  weight for this iteration     100.00

 eigenvalues of (default mixing * dielectric matrix)
  average eigenvalue GAMMA=   2.2344
  6.1747  3.5365  2.5497  2.4264  1.6330  0.7449  0.9753  0.9977  1.0714

 Free energy of the ion-electron system (eV)
  ---------------------------------------------------
  alpha Z        PSCENC =         0.85010715
  Ewald energy   TEWEN  =        48.90784304
  -Hartree energ DENC   =      -533.02013143
  -exchange      EXHF   =         0.00000000
  -V(xc)+E(xc)   XCENC  =        41.06139892
  PAW double counting   =       376.81691702     -379.91905414
  entropy T*S    EENTRO =        -0.00000000
  eigenvalues    EBANDS =      -148.88480466
  atomic energy  EATOM  =       579.39041991
  Solvation  Ediel_sol  =         0.00000000
  ---------------------------------------------------
  free energy    TOTEN  =       -14.79730420 eV

  energy without entropy =      -14.79730420  energy(sigma->0) =      -14.79730420


--------------------------------------------------------------------------------------------------------




--------------------------------------- Iteration      1(  15)  ---------------------------------------


    POTLOK:  cpu time    0.0612: real time    0.0612
    SETDIJ:  cpu time    0.0006: real time    0.0006
     EDDAV:  cpu time    0.0321: real time    0.0321
       DOS:  cpu time    0.0001: real time    0.0001
    CHARGE:  cpu time    0.0096: real time    0.0096
    MIXING:  cpu time    0.0032: real time    0.0032
    --------------------------------------------
      LOOP:  cpu time    0.1068: real time    0.1069

 eigenvalue-minimisations  :    24
 total energy-change (2. order) :-0.8928044E-04  (-0.7166498E-06)
 number of electron      10.0000102 magnetization 
 augmentation part        0.6530141 magnetization 

 Broyden mixing:
  rms(total) = 0.84492E-04    rms(broyden)= 0.84455E-04
  rms(prec ) = 0.14558E-03
  weight for this iteration     100.00

 eigenvalues of (default mixing * dielectric matrix)
  average eigenvalue GAMMA=   2.1405
  6.2092  3.6505  2.4857  2.4318  1.6566  0.7449  0.9748  0.9748  1.1383  1.1383

 Free energy of the ion-electron system (eV)
  ---------------------------------------------------
  alpha Z        PSCENC =         0.85010715
  Ewald energy   TEWEN  =        48.90784304
  -Hartree energ DENC   =      -533.01021649
  -exchange      EXHF   =         0.00000000
  -V(xc)+E(xc)   XCENC  =        41.06079288
  PAW double counting   =       376.83649821     -379.93811012
  entropy T*S    EENTRO =        -0.00000000
  eigenvalues    EBANDS =      -148.89472806
  atomic energy  EATOM  =       579.39041991
  Solvation  Ediel_sol  =         0.00000000
  ---------------------------------------------------
  free energy    TOTEN  =       -14.79739348 eV

  energy without entropy =      -14.79739348  energy(sigma->0) =      -14.79739348


--------------------------------------------------------------------------------------------------------




--------------------------------------- Iteration      1(  16)  ---------------------------------------


    POTLOK:  cpu time    0.0613: real time    0.0614
    SETDIJ:  cpu time    0.0006: real time    0.0006
     EDDAV:  cpu time    0.0358: real time    0.0358
       DOS:  cpu time    0.0001: real time    0.0001
    CHARGE:  cpu time    0.0096: real time    0.0096
    MIXING:  cpu time    0.0033: real time    0.0033
    --------------------------------------------
      LOOP:  cpu time    0.1107: real time    0.1107

 eigenvalue-minimisations  :    28
 total energy-change (2. order) :-0.9654928E-05  (-0.4977827E-07)
 number of electron      10.0000102 magnetization 
 augmentation part        0.6530072 magnetization 

 Broyden mixing:
  rms(total) = 0.38322E-04    rms(broyden)= 0.38312E-04
  rms(prec ) = 0.74902E-04
  weight for this iteration     100.00

 eigenvalues of (default mixing * dielectric matrix)
  average eigenvalue GAMMA=   2.2544
  6.4860  4.1959  2.9689  2.4613  2.2606  1.6373  0.7449  1.0508  0.9886  1.0018
  1.0018

 Free energy of the ion-electron system (eV)
  ---------------------------------------------------
  alpha Z        PSCENC =         0.85010715
  Ewald energy   TEWEN  =        48.90784304
  -Hartree energ DENC   =      -533.00913953
  -exchange      EXHF   =         0.00000000
  -V(xc)+E(xc)   XCENC  =        41.06081428
  PAW double counting   =       376.83406312     -379.93575727
  entropy T*S    EENTRO =        -0.00000000
  eigenvalues    EBANDS =      -148.89575384
  atomic energy  EATOM  =       579.39041991
  Solvation  Ediel_sol  =         0.00000000
  ---------------------------------------------------
  free energy    TOTEN  =       -14.79740314 eV

  energy without entropy =      -14.79740314  energy(sigma->0) =      -14.79740314


--------------------------------------------------------------------------------------------------------




--------------------------------------- Iteration      1(  17)  ---------------------------------------


    POTLOK:  cpu time    0.0613: real time    0.0613
    SETDIJ:  cpu time    0.0006: real time    0.0006
     EDDAV:  cpu time    0.0321: real time    0.0321
       DOS:  cpu time    0.0001: real time    0.0001
    CHARGE:  cpu time    0.0097: real time    0.0097
    MIXING:  cpu time    0.0035: real time    0.0035
    --------------------------------------------
      LOOP:  cpu time    0.1072: real time    0.1072

 eigenvalue-minimisations  :    24
 total energy-change (2. order) :-0.4159871E-05  (-0.4199256E-07)
 number of electron      10.0000102 magnetization 
 augmentation part        0.6530050 magnetization 

 Broyden mixing:
  rms(total) = 0.22001E-04    rms(broyden)= 0.21992E-04
  rms(prec ) = 0.36645E-04
  weight for this iteration     100.00

 eigenvalues of (default mixing * dielectric matrix)
  average eigenvalue GAMMA=   2.2581
  6.5090  4.4246  3.0155  2.4916  2.4916  0.7449  1.6472  1.6068  0.9869  0.9869
  1.0307  1.1621

 Free energy of the ion-electron system (eV)
  ---------------------------------------------------
  alpha Z        PSCENC =         0.85010715
  Ewald energy   TEWEN  =        48.90784304
  -Hartree energ DENC   =      -533.00657649
  -exchange      EXHF   =         0.00000000
  -V(xc)+E(xc)   XCENC  =        41.06070783
  PAW double counting   =       376.83008276     -379.93173094
  entropy T*S    EENTRO =        -0.00000000
  eigenvalues    EBANDS =      -148.89826056
  atomic energy  EATOM  =       579.39041991
  Solvation  Ediel_sol  =         0.00000000
  ---------------------------------------------------
  free energy    TOTEN  =       -14.79740730 eV

  energy without entropy =      -14.79740730  energy(sigma->0) =      -14.79740730


--------------------------------------------------------------------------------------------------------




--------------------------------------- Iteration      1(  18)  ---------------------------------------


    POTLOK:  cpu time    0.0621: real time    0.0621
    SETDIJ:  cpu time    0.0006: real time    0.0006
     EDDAV:  cpu time    0.0323: real time    0.0323
       DOS:  cpu time    0.0001: real time    0.0001
    --------------------------------------------
      LOOP:  cpu time    0.0950: real time    0.0950

 eigenvalue-minimisations  :    24
 total energy-change (2. order) :-0.9484612E-06  (-0.5398171E-08)
 number of electron      10.0000102 magnetization 
 augmentation part        0.6530050 magnetization 

 Free energy of the ion-electron system (eV)
  ---------------------------------------------------
  alpha Z        PSCENC =         0.85010715
  Ewald energy   TEWEN  =        48.90784304
  -Hartree energ DENC   =      -533.00669240
  -exchange      EXHF   =         0.00000000
  -V(xc)+E(xc)   XCENC  =        41.06072010
  PAW double counting   =       376.83132382     -379.93300495
  entropy T*S    EENTRO =        -0.00000000
  eigenvalues    EBANDS =      -148.89812491
  atomic energy  EATOM  =       579.39041991
  Solvation  Ediel_sol  =         0.00000000
  ---------------------------------------------------
  free energy    TOTEN  =       -14.79740824 eV

  energy without entropy =      -14.79740824  energy(sigma->0) =      -14.79740824


--------------------------------------------------------------------------------------------------------




 average (electrostatic) potential at core
  the test charge radii are     0.7215  0.6991
  (the norm of the test charge is              1.0000)
       1 -83.2939       2 -61.3942



 E-fermi :  -7.8186     XC(G=0):  -1.1814     alpha+bet : -0.3423


 k-point     1 :       0.0000    0.0000    0.0000
  band No.  band energies     occupation 
      1     -28.9882      2.00000
      2     -13.7641      2.00000
      3     -11.4658      2.00000
      4     -11.4658      2.00000
      5      -8.7651      2.00000
      6      -1.8505      0.00000
      7      -1.8505      0.00000
      8      -0.2537      0.00000
      9       1.6990      0.00000
     10       1.8725      0.00000
     11       1.8725      0.00000
     12       1.9382      0.00000


--------------------------------------------------------------------------------------------------------


 soft charge-density along one line, spin component           1
         0         1         2         3         4         5         6         7         8         9
 total charge-density along one line

 pseudopotential strength for first ion, spin component:           1
 14.194  -0.592  -0.000  -0.147  -0.000   0.000   0.008   0.000
 -0.592   0.133   0.000   0.017   0.000  -0.000  -0.003  -0.000
 -0.000   0.000 -11.002   0.000   0.000   0.414  -0.000  -0.000
 -0.147   0.017   0.000 -11.146   0.000  -0.000   0.433  -0.000
 -0.000   0.000   0.000   0.000 -11.002  -0.000  -0.000   0.414
  0.000  -0.000   0.414  -0.000  -0.000   0.088   0.000   0.000
  0.008  -0.003  -0.000   0.433  -0.000   0.000   0.084   0.000
  0.000  -0.000  -0.000  -0.000   0.414   0.000   0.000   0.088
 total augmentation occupancy for first ion, spin component:           1
  1.945   0.177   0.000  -0.091  -0.000   0.000   0.089  -0.000
  0.177   0.065   0.000   0.202   0.000   0.000   0.061  -0.000
  0.000   0.000   1.461   0.000   0.000   0.141  -0.000   0.000
 -0.091   0.202   0.000   1.784   0.000  -0.000   0.276   0.000
 -0.000   0.000   0.000  -0.000   1.461   0.000   0.000   0.141
  0.000   0.000   0.141  -0.000   0.000   0.014   0.000   0.000
  0.089   0.061  -0.000   0.276   0.000   0.000   0.065   0.000
 -0.000  -0.000   0.000   0.000   0.141   0.000   0.000   0.014


------------------------ aborting loop because EDIFF is reached ----------------------------------------


    CHARGE:  cpu time    0.0098: real time    0.0098
    FORLOC:  cpu time    0.0042: real time    0.0042
    FORNL :  cpu time    0.0040: real time    0.0040
    STRESS:  cpu time    0.0525: real time    0.0525
    FORHAR:  cpu time    0.0193: real time    0.0193
    MIXING:  cpu time    0.0033: real time    0.0033
    OFIELD:  cpu time    0.0000: real time    0.0000

  FORCE on cell =-STRESS in cart. coord.  units (eV):
  Direction    XX          YY          ZZ          XY          YZ          ZX
  --------------------------------------------------------------------------------------
  Alpha Z     0.85011     0.85011     0.85011
  Ewald     -86.00472   -86.00472   220.91723    -0.00000     0.00000     0.00000
  Hartree   140.53748   140.53748   251.93103    -0.00000    -0.00000    -0.00000
  E(xc)     -43.74040   -43.74040   -42.56092     0.00000     0.00000    -0.00000
  Local    -190.95489  -190.95489  -582.89077    -0.00000     0.00000     0.00000
  n-local   -18.44611   -18.44611   -29.75963     0.00000     0.00000    -0.00000
  augment     6.22562     6.22562     5.74332     0.00000     0.00000     0.00000
  Kinetic   190.76207   190.76207   175.09532     0.00000     0.00000     0.00000
  Fock        0.00000     0.00000     0.00000     0.00000     0.00000     0.00000
  -------------------------------------------------------------------------------------
  Total      -0.77084    -0.77084    -0.67433     0.00000     0.00000     0.00000
  in kB      -2.41215    -2.41215    -2.11013     0.00000     0.00000     0.00000
  external pressure =       -2.31 kB  Pullay stress =        0.00 kB


 VOLUME and BASIS-vectors are now :
 -----------------------------------------------------------------------------
  energy-cutoff  :      400.00
  volume of cell :      512.00
      direct lattice vectors                 reciprocal lattice vectors
     8.000000000  0.000000000  0.000000000     0.125000000  0.000000000  0.000000000
     0.000000000  8.000000000  0.000000000     0.000000000  0.125000000  0.000000000
     0.000000000  0.000000000  8.000000000     0.000000000  0.000000000  0.125000000

  length of vectors
     8.000000000  8.000000000  8.000000000     0.125000000  0.125000000  0.125000000


 FORCES acting on ions
    electron-ion (+dipol)            ewald-force                    non-local-force                 convergence-correction
 -----------------------------------------------------------------------------------------------
   -.206E-14 -.817E-13 0.201E+03   -.145E-15 -.560E-16 -.261E+03   0.000E+00 0.000E+00 0.595E+02   -.298E-13 -.587E-14 0.140E-03
   -.279E-14 -.181E-12 -.233E+03   0.994E-16 0.103E-15 0.261E+03   -.258E-25 0.258E-25 -.281E+02   -.570E-14 0.132E-14 -.409E-04
 -----------------------------------------------------------------------------------------------
   -.485E-14 -.263E-12 -.315E+02   -.451E-16 0.475E-16 0.000E+00   -.258E-25 0.258E-25 0.315E+02   -.355E-13 -.455E-14 0.988E-04


 POSITION                                       TOTAL-FORCE (eV/Angst)
 -----------------------------------------------------------------------------------
      0.00000      0.00000      0.00000        -0.000000      0.000000     -0.063208
      0.00000      0.00000      1.14300         0.000000     -0.000000      0.063208
 -----------------------------------------------------------------------------------
    total drift:                               -0.000000     -0.000000     -0.003804


--------------------------------------------------------------------------------------------------------



  FREE ENERGIE OF THE ION-ELECTRON SYSTEM (eV)
  ---------------------------------------------------
  free  energy   TOTEN  =       -14.79740824 eV

  energy  without entropy=      -14.79740824  energy(sigma->0) =      -14.79740824



--------------------------------------------------------------------------------------------------------


    POTLOK:  cpu time    0.0612: real time    0.0612


--------------------------------------------------------------------------------------------------------


 Finite differences:
   Step               POTIM =    2.0000000000000000E-002
   Degrees of freedom DOF   =            2
  LATTYP: Found a simple cubic cell.
 ALAT       =     8.0000000000
  
  Lattice vectors:
  
 A1 = (   8.0000000000,   0.0000000000,   0.0000000000)
 A2 = (   0.0000000000,   8.0000000000,   0.0000000000)
 A3 = (   0.0000000000,   0.0000000000,   8.0000000000)


Analysis of symmetry for initial positions (statically):
=====================================================================
 Subroutine PRICEL returns:
 Original cell was already a primitive cell.
 

 Routine SETGRP: Setting up the symmetry group for a 
 simple cubic supercell.


 Subroutine GETGRP returns: Found  8 space group operations
 (whereof  8 operations were pure point group operations)
 out of a pool of 48 trial point group operations.


The static configuration has the point symmetry C_4v.


Analysis of symmetry for dynamics (positions and initial velocities):
=====================================================================
 Subroutine PRICEL returns:
 Original cell was already a primitive cell.
 

 Routine SETGRP: Setting up the symmetry group for a 
 simple cubic supercell.


 Subroutine GETGRP returns: Found  8 space group operations
 (whereof  8 operations were pure point group operations)
 out of a pool of 48 trial point group operations.


The dynamic configuration has the point symmetry C_4v.


Analysis of constrained symmetry for selective dynamics:
=====================================================================
 Subroutine PRICEL returns:
 Original cell was already a primitive cell.
 

 Routine SETGRP: Setting up the symmetry group for a 
 simple cubic supercell.


 Subroutine GETGRP returns: Found  8 space group operations
 (whereof  8 operations were pure point group operations)
 out of a pool of 48 trial point group operations.


The constrained configuration has the point symmetry C_4v.


 Subroutine INISYM returns: Found  8 space group operations
 (whereof  8 operations are pure point group operations),
 and found     1 'primitive' translations


 KPOINTS: Gamma-point only                        
  k-points in reciprocal lattice
Space group operators:
 irot       det(A)        alpha          n_x          n_y          n_z        tau_x        tau_y        tau_z
    1     1.000000     0.000000     1.000000     0.000000     0.000000     0.000000     0.000000     0.000000
    2     1.000000    90.000000     0.000000     0.000000    -1.000000     0.000000     0.000000     0.000000
    3     1.000000   180.000000     0.000000     0.000000     1.000000     0.000000     0.000000     0.000000
    4     1.000000    90.000000     0.000000     0.000000     1.000000     0.000000     0.000000     0.000000
    5    -1.000000   180.000000     1.000000     0.000000     0.000000     0.000000     0.000000     0.000000
    6    -1.000000   180.000000     0.707107     0.707107     0.000000     0.000000     0.000000     0.000000
    7    -1.000000   180.000000     0.000000     1.000000     0.000000     0.000000     0.000000     0.000000
    8    -1.000000   180.000000     0.707107    -0.707107     0.000000     0.000000     0.000000     0.000000
    WAVPRE:  cpu time    0.3551: real time    0.3634
    FEWALD:  cpu time    0.0001: real time    0.0001
    ORTHCH:  cpu time    0.0017: real time    0.0017
     LOOP+:  cpu time    2.2415: real time    2.2550


--------------------------------------- Iteration      2(   1)  ---------------------------------------


    POTLOK:  cpu time    0.0644: real time    0.0644
    SETDIJ:  cpu time    0.0006: real time    0.0006
     EDDAV:  cpu time    0.0323: real time    0.0323
       DOS:  cpu time    0.0001: real time    0.0001
    CHARGE:  cpu time    0.0097: real time    0.0098
    MIXING:  cpu time    0.0027: real time    0.0027
    --------------------------------------------
      LOOP:  cpu time    0.1098: real time    0.1098

 eigenvalue-minimisations  :    24
 total energy-change (2. order) : 0.2492527E-01  (-0.2332712E+00)
 number of electron      10.0000068 magnetization 
 augmentation part        0.6628726 magnetization 

 Broyden mixing:
  rms(total) = 0.36961E-01    rms(broyden)= 0.36721E-01
  rms(prec ) = 0.47557E-01
  weight for this iteration     100.00

 Free energy of the ion-electron system (eV)
  ---------------------------------------------------
  alpha Z        PSCENC =         0.85010715
  Ewald energy   TEWEN  =        54.22475701
  -Hartree energ DENC   =      -536.10948483
  -exchange      EXHF   =         0.00000000
  -V(xc)+E(xc)   XCENC  =        41.15700491
  PAW double counting   =       376.83105554     -379.93273297
  entropy T*S    EENTRO =        -0.00000000
  eigenvalues    EBANDS =      -151.18360875
  atomic energy  EATOM  =       579.39041991
  Solvation  Ediel_sol  =         0.00000000
  ---------------------------------------------------
  free energy    TOTEN  =       -14.77248202 eV

  energy without entropy =      -14.77248202  energy(sigma->0) =      -14.77248202


--------------------------------------------------------------------------------------------------------




--------------------------------------- Iteration      2(   2)  ---------------------------------------


    POTLOK:  cpu time    0.0622: real time    0.0622
    SETDIJ:  cpu time    0.0006: real time    0.0006
     EDDAV:  cpu time    0.0322: real time    0.0322
       DOS:  cpu time    0.0001: real time    0.0001
    CHARGE:  cpu time    0.0099: real time    0.0099
    MIXING:  cpu time    0.0027: real time    0.0027
    --------------------------------------------
      LOOP:  cpu time    0.1076: real time    0.1076

 eigenvalue-minimisations  :    24
 total energy-change (2. order) :-0.4779803E-03  (-0.3440512E-02)
 number of electron      10.0000068 magnetization 
 augmentation part        0.6648066 magnetization 

 Broyden mixing:
  rms(total) = 0.22520E-01    rms(broyden)= 0.22503E-01
  rms(prec ) = 0.28931E-01
  weight for this iteration     100.00

 eigenvalues of (default mixing * dielectric matrix)
  average eigenvalue GAMMA=   1.6287
  1.6287

 Free energy of the ion-electron system (eV)
  ---------------------------------------------------
  alpha Z        PSCENC =         0.85010715
  Ewald energy   TEWEN  =        54.22475701
  -Hartree energ DENC   =      -536.64227732
  -exchange      EXHF   =         0.00000000
  -V(xc)+E(xc)   XCENC  =        41.18784324
  PAW double counting   =       379.64585577     -382.75956867
  entropy T*S    EENTRO =        -0.00000000
  eigenvalues    EBANDS =      -150.67009708
  atomic energy  EATOM  =       579.39041991
  Solvation  Ediel_sol  =         0.00000000
  ---------------------------------------------------
  free energy    TOTEN  =       -14.77296000 eV

  energy without entropy =      -14.77296000  energy(sigma->0) =      -14.77296000


--------------------------------------------------------------------------------------------------------




--------------------------------------- Iteration      2(   3)  ---------------------------------------


    POTLOK:  cpu time    0.0630: real time    0.0630
    SETDIJ:  cpu time    0.0006: real time    0.0006
     EDDAV:  cpu time    0.0321: real time    0.0321
       DOS:  cpu time    0.0001: real time    0.0001
    CHARGE:  cpu time    0.0098: real time    0.0098
    MIXING:  cpu time    0.0028: real time    0.0028
    --------------------------------------------
      LOOP:  cpu time    0.1084: real time    0.1084

 eigenvalue-minimisations  :    24
 total energy-change (2. order) : 0.1056922E-02  (-0.4209168E-03)
 number of electron      10.0000068 magnetization 
 augmentation part        0.6641190 magnetization 

 Broyden mixing:
  rms(total) = 0.52488E-02    rms(broyden)= 0.52366E-02
  rms(prec ) = 0.62756E-02
  weight for this iteration     100.00

 eigenvalues of (default mixing * dielectric matrix)
  average eigenvalue GAMMA=   1.4756
  1.0514  1.8997

 Free energy of the ion-electron system (eV)
  ---------------------------------------------------
  alpha Z        PSCENC =         0.85010715
  Ewald energy   TEWEN  =        54.22475701
  -Hartree energ DENC   =      -537.26997794
  -exchange      EXHF   =         0.00000000
  -V(xc)+E(xc)   XCENC  =        41.22258177
  PAW double counting   =       382.74478046     -385.87836285
  entropy T*S    EENTRO =        -0.00000000
  eigenvalues    EBANDS =      -150.05620857
  atomic energy  EATOM  =       579.39041991
  Solvation  Ediel_sol  =         0.00000000
  ---------------------------------------------------
  free energy    TOTEN  =       -14.77190308 eV

  energy without entropy =      -14.77190308  energy(sigma->0) =      -14.77190308


--------------------------------------------------------------------------------------------------------




--------------------------------------- Iteration      2(   4)  ---------------------------------------


    POTLOK:  cpu time    0.0620: real time    0.0620
    SETDIJ:  cpu time    0.0006: real time    0.0006
     EDDAV:  cpu time    0.0357: real time    0.0357
       DOS:  cpu time    0.0001: real time    0.0001
    CHARGE:  cpu time    0.0099: real time    0.0099
    MIXING:  cpu time    0.0028: real time    0.0028
    --------------------------------------------
      LOOP:  cpu time    0.1110: real time    0.1110

 eigenvalue-minimisations  :    28
 total energy-change (2. order) :-0.1980156E-04  (-0.1320936E-04)
 number of electron      10.0000068 magnetization 
 augmentation part        0.6638416 magnetization 

 Broyden mixing:
  rms(total) = 0.29780E-02    rms(broyden)= 0.29760E-02
  rms(prec ) = 0.36604E-02
  weight for this iteration     100.00

 eigenvalues of (default mixing * dielectric matrix)
  average eigenvalue GAMMA=   1.6363
  1.0411  1.5015  2.3665

 Free energy of the ion-electron system (eV)
  ---------------------------------------------------
  alpha Z        PSCENC =         0.85010715
  Ewald energy   TEWEN  =        54.22475701
  -Hartree energ DENC   =      -537.25915261
  -exchange      EXHF   =         0.00000000
  -V(xc)+E(xc)   XCENC  =        41.22175286
  PAW double counting   =       383.14635792     -386.28101790
  entropy T*S    EENTRO =        -0.00000000
  eigenvalues    EBANDS =      -150.06514722
  atomic energy  EATOM  =       579.39041991
  Solvation  Ediel_sol  =         0.00000000
  ---------------------------------------------------
  free energy    TOTEN  =       -14.77192288 eV

  energy without entropy =      -14.77192288  energy(sigma->0) =      -14.77192288


--------------------------------------------------------------------------------------------------------




--------------------------------------- Iteration      2(   5)  ---------------------------------------


    POTLOK:  cpu time    0.0622: real time    0.0622
    SETDIJ:  cpu time    0.0006: real time    0.0006
     EDDAV:  cpu time    0.0322: real time    0.0322
       DOS:  cpu time    0.0001: real time    0.0001
    CHARGE:  cpu time    0.0097: real time    0.0097
    MIXING:  cpu time    0.0030: real time    0.0030
    --------------------------------------------
      LOOP:  cpu time    0.1078: real time    0.1078

 eigenvalue-minimisations  :    24
 total energy-change (2. order) :-0.1690268E-04  (-0.2471282E-05)
 number of electron      10.0000068 magnetization 
 augmentation part        0.6639882 magnetization 

 Broyden mixing:
  rms(total) = 0.81544E-03    rms(broyden)= 0.81466E-03
  rms(prec ) = 0.13338E-02
  weight for this iteration     100.00

 eigenvalues of (default mixing * dielectric matrix)
  average eigenvalue GAMMA=   1.4850
  2.5474  1.6415  1.0292  0.7219

 Free energy of the ion-electron system (eV)
  ---------------------------------------------------
  alpha Z        PSCENC =         0.85010715
  Ewald energy   TEWEN  =        54.22475701
  -Hartree energ DENC   =      -537.23760405
  -exchange      EXHF   =         0.00000000
  -V(xc)+E(xc)   XCENC  =        41.22046580
  PAW double counting   =       383.54386712     -386.67889647
  entropy T*S    EENTRO =        -0.00000000
  eigenvalues    EBANDS =      -150.08505624
  atomic energy  EATOM  =       579.39041991
  Solvation  Ediel_sol  =         0.00000000
  ---------------------------------------------------
  free energy    TOTEN  =       -14.77193978 eV

  energy without entropy =      -14.77193978  energy(sigma->0) =      -14.77193978


--------------------------------------------------------------------------------------------------------




--------------------------------------- Iteration      2(   6)  ---------------------------------------


    POTLOK:  cpu time    0.0620: real time    0.0620
    SETDIJ:  cpu time    0.0008: real time    0.0008
     EDDAV:  cpu time    0.0400: real time    0.0400
       DOS:  cpu time    0.0001: real time    0.0001
    CHARGE:  cpu time    0.0097: real time    0.0097
    MIXING:  cpu time    0.0030: real time    0.0030
    --------------------------------------------
      LOOP:  cpu time    0.1156: real time    0.1156

 eigenvalue-minimisations  :    32
 total energy-change (2. order) :-0.1457850E-04  (-0.5782539E-06)
 number of electron      10.0000068 magnetization 
 augmentation part        0.6639361 magnetization 

 Broyden mixing:
  rms(total) = 0.27030E-03    rms(broyden)= 0.27019E-03
  rms(prec ) = 0.65594E-03
  weight for this iteration     100.00

 eigenvalues of (default mixing * dielectric matrix)
  average eigenvalue GAMMA=   1.4922
  2.5262  1.5665  1.5665  0.9659  0.8358

 Free energy of the ion-electron system (eV)
  ---------------------------------------------------
  alpha Z        PSCENC =         0.85010715
  Ewald energy   TEWEN  =        54.22475701
  -Hartree energ DENC   =      -537.22943652
  -exchange      EXHF   =         0.00000000
  -V(xc)+E(xc)   XCENC  =        41.22000469
  PAW double counting   =       383.61131610     -386.74617200
  entropy T*S    EENTRO =        -0.00000000
  eigenvalues    EBANDS =      -150.09295070
  atomic energy  EATOM  =       579.39041991
  Solvation  Ediel_sol  =         0.00000000
  ---------------------------------------------------
  free energy    TOTEN  =       -14.77195436 eV

  energy without entropy =      -14.77195436  energy(sigma->0) =      -14.77195436


--------------------------------------------------------------------------------------------------------




--------------------------------------- Iteration      2(   7)  ---------------------------------------


    POTLOK:  cpu time    0.0621: real time    0.0621
    SETDIJ:  cpu time    0.0007: real time    0.0007
     EDDAV:  cpu time    0.0395: real time    0.0395
       DOS:  cpu time    0.0002: real time    0.0002
    CHARGE:  cpu time    0.0102: real time    0.0104
    MIXING:  cpu time    0.0029: real time    0.0029
    --------------------------------------------
      LOOP:  cpu time    0.1156: real time    0.1158

 eigenvalue-minimisations  :    32
 total energy-change (2. order) :-0.2421581E-04  (-0.1634860E-06)
 number of electron      10.0000068 magnetization 
 augmentation part        0.6639019 magnetization 

 Broyden mixing:
  rms(total) = 0.15600E-03    rms(broyden)= 0.15580E-03
  rms(prec ) = 0.42975E-03
  weight for this iteration     100.00

 eigenvalues of (default mixing * dielectric matrix)
  average eigenvalue GAMMA=   1.5235
  2.4652  2.2926  1.5134  0.8838  0.8838  1.1024

 Free energy of the ion-electron system (eV)
  ---------------------------------------------------
  alpha Z        PSCENC =         0.85010715
  Ewald energy   TEWEN  =        54.22475701
  -Hartree energ DENC   =      -537.23598684
  -exchange      EXHF   =         0.00000000
  -V(xc)+E(xc)   XCENC  =        41.22044594
  PAW double counting   =       383.61275034     -386.74747087
  entropy T*S    EENTRO =        -0.00000000
  eigenvalues    EBANDS =      -150.08700121
  atomic energy  EATOM  =       579.39041991
  Solvation  Ediel_sol  =         0.00000000
  ---------------------------------------------------
  free energy    TOTEN  =       -14.77197858 eV

  energy without entropy =      -14.77197858  energy(sigma->0) =      -14.77197858


--------------------------------------------------------------------------------------------------------




--------------------------------------- Iteration      2(   8)  ---------------------------------------


    POTLOK:  cpu time    0.0621: real time    0.0621
    SETDIJ:  cpu time    0.0006: real time    0.0006
     EDDAV:  cpu time    0.0396: real time    0.0396
       DOS:  cpu time    0.0001: real time    0.0001
    CHARGE:  cpu time    0.0099: real time    0.0099
    MIXING:  cpu time    0.0029: real time    0.0029
    --------------------------------------------
      LOOP:  cpu time    0.1152: real time    0.1153

 eigenvalue-minimisations  :    32
 total energy-change (2. order) :-0.2346007E-04  (-0.1447895E-06)
 number of electron      10.0000068 magnetization 
 augmentation part        0.6639332 magnetization 

 Broyden mixing:
  rms(total) = 0.10581E-03    rms(broyden)= 0.10572E-03
  rms(prec ) = 0.21422E-03
  weight for this iteration     100.00

 eigenvalues of (default mixing * dielectric matrix)
  average eigenvalue GAMMA=   1.7288
  3.5662  2.3867  1.8072  1.4965  0.9019  0.9019  1.0409

 Free energy of the ion-electron system (eV)
  ---------------------------------------------------
  alpha Z        PSCENC =         0.85010715
  Ewald energy   TEWEN  =        54.22475701
  -Hartree energ DENC   =      -537.23428302
  -exchange      EXHF   =         0.00000000
  -V(xc)+E(xc)   XCENC  =        41.22035516
  PAW double counting   =       383.59849384     -386.73299147
  entropy T*S    EENTRO =        -0.00000000
  eigenvalues    EBANDS =      -150.08886061
  atomic energy  EATOM  =       579.39041991
  Solvation  Ediel_sol  =         0.00000000
  ---------------------------------------------------
  free energy    TOTEN  =       -14.77200204 eV

  energy without entropy =      -14.77200204  energy(sigma->0) =      -14.77200204


--------------------------------------------------------------------------------------------------------




--------------------------------------- Iteration      2(   9)  ---------------------------------------


    POTLOK:  cpu time    0.0620: real time    0.0620
    SETDIJ:  cpu time    0.0006: real time    0.0006
     EDDAV:  cpu time    0.0409: real time    0.0409
       DOS:  cpu time    0.0001: real time    0.0001
    CHARGE:  cpu time    0.0102: real time    0.0102
    MIXING:  cpu time    0.0030: real time    0.0030
    --------------------------------------------
      LOOP:  cpu time    0.1169: real time    0.1168

 eigenvalue-minimisations  :    32
 total energy-change (2. order) :-0.1396386E-04  (-0.8755042E-07)
 number of electron      10.0000068 magnetization 
 augmentation part        0.6639233 magnetization 

 Broyden mixing:
  rms(total) = 0.47724E-04    rms(broyden)= 0.47672E-04
  rms(prec ) = 0.83995E-04
  weight for this iteration     100.00

 eigenvalues of (default mixing * dielectric matrix)
  average eigenvalue GAMMA=   1.8895
  4.9354  2.5895  2.0901  1.6764  0.9726  0.9726  0.9398  0.9398

 Free energy of the ion-electron system (eV)
  ---------------------------------------------------
  alpha Z        PSCENC =         0.85010715
[...]
  average eigenvalue GAMMA=   1.7896
  3.8702  2.5606  1.6539  1.6539  0.8125  0.9879  0.9879

 Free energy of the ion-electron system (eV)
  ---------------------------------------------------
  alpha Z        PSCENC =         0.85010715
  Ewald energy   TEWEN  =        54.22475701
  -Hartree energ DENC   =      -537.23572485
  -exchange      EXHF   =         0.00000000
  -V(xc)+E(xc)   XCENC  =        41.22044064
  PAW double counting   =       383.58636166     -386.72077168
  entropy T*S    EENTRO =        -0.00000000
  eigenvalues    EBANDS =      -150.08775156
  atomic energy  EATOM  =       579.39041991
  Solvation  Ediel_sol  =         0.00000000
  ---------------------------------------------------
  free energy    TOTEN  =       -14.77216173 eV

  energy without entropy =      -14.77216173  energy(sigma->0) =      -14.77216173


--------------------------------------------------------------------------------------------------------




--------------------------------------- Iteration      5(   9)  ---------------------------------------


    POTLOK:  cpu time    0.0618: real time    0.0669
    SETDIJ:  cpu time    0.0006: real time    0.0006
     EDDAV:  cpu time    0.0345: real time    0.0345
       DOS:  cpu time    0.0001: real time    0.0001
    CHARGE:  cpu time    0.0104: real time    0.0104
    MIXING:  cpu time    0.0031: real time    0.0031
    --------------------------------------------
      LOOP:  cpu time    0.1105: real time    0.1156

 eigenvalue-minimisations  :    24
 total energy-change (2. order) :-0.3636454E-04  (-0.2115988E-06)
 number of electron      10.0000101 magnetization 
 augmentation part        0.6639325 magnetization 

 Broyden mixing:
  rms(total) = 0.79513E-04    rms(broyden)= 0.79435E-04
  rms(prec ) = 0.15170E-03
  weight for this iteration     100.00

 eigenvalues of (default mixing * dielectric matrix)
  average eigenvalue GAMMA=   2.0211
  5.3249  2.7078  2.5587  1.6356  0.8120  1.0227  1.0536  1.0536

 Free energy of the ion-electron system (eV)
  ---------------------------------------------------
  alpha Z        PSCENC =         0.85010715
  Ewald energy   TEWEN  =        54.22475701
  -Hartree energ DENC   =      -537.24132385
  -exchange      EXHF   =         0.00000000
  -V(xc)+E(xc)   XCENC  =        41.22067001
  PAW double counting   =       383.60143491     -386.73607015
  entropy T*S    EENTRO =        -0.00000000
  eigenvalues    EBANDS =      -150.08219308
  atomic energy  EATOM  =       579.39041991
  Solvation  Ediel_sol  =         0.00000000
  ---------------------------------------------------
  free energy    TOTEN  =       -14.77219809 eV

  energy without entropy =      -14.77219809  energy(sigma->0) =      -14.77219809


--------------------------------------------------------------------------------------------------------




--------------------------------------- Iteration      5(  10)  ---------------------------------------


    POTLOK:  cpu time    0.0628: real time    0.0628
    SETDIJ:  cpu time    0.0006: real time    0.0006
     EDDAV:  cpu time    0.0320: real time    0.0320
       DOS:  cpu time    0.0001: real time    0.0001
    CHARGE:  cpu time    0.0098: real time    0.0098
    MIXING:  cpu time    0.0031: real time    0.0031
    --------------------------------------------
      LOOP:  cpu time    0.1084: real time    0.1084

 eigenvalue-minimisations  :    24
 total energy-change (2. order) :-0.1773719E-04  (-0.1035654E-06)
 number of electron      10.0000101 magnetization 
 augmentation part        0.6639357 magnetization 

 Broyden mixing:
  rms(total) = 0.50321E-04    rms(broyden)= 0.50314E-04
  rms(prec ) = 0.70343E-04
  weight for this iteration     100.00

 eigenvalues of (default mixing * dielectric matrix)
  average eigenvalue GAMMA=   2.0890
  5.9096  2.9854  2.4702  2.0225  1.6316  0.8125  0.9485  1.0105  1.0105

 Free energy of the ion-electron system (eV)
  ---------------------------------------------------
  alpha Z        PSCENC =         0.85010715
  Ewald energy   TEWEN  =        54.22475701
  -Hartree energ DENC   =      -537.24019574
  -exchange      EXHF   =         0.00000000
  -V(xc)+E(xc)   XCENC  =        41.22055735
  PAW double counting   =       383.60531447     -386.74007779
  entropy T*S    EENTRO =        -0.00000000
  eigenvalues    EBANDS =      -150.08309818
  atomic energy  EATOM  =       579.39041991
  Solvation  Ediel_sol  =         0.00000000
  ---------------------------------------------------
  free energy    TOTEN  =       -14.77221583 eV

  energy without entropy =      -14.77221583  energy(sigma->0) =      -14.77221583


--------------------------------------------------------------------------------------------------------




--------------------------------------- Iteration      5(  11)  ---------------------------------------


    POTLOK:  cpu time    0.0656: real time    0.0656
    SETDIJ:  cpu time    0.0007: real time    0.0007
     EDDAV:  cpu time    0.0408: real time    0.0408
       DOS:  cpu time    0.0001: real time    0.0001
    CHARGE:  cpu time    0.0098: real time    0.0098
    MIXING:  cpu time    0.0032: real time    0.0032
    --------------------------------------------
      LOOP:  cpu time    0.1201: real time    0.1202

 eigenvalue-minimisations  :    32
 total energy-change (2. order) :-0.3808243E-05  (-0.1551822E-07)
 number of electron      10.0000101 magnetization 
 augmentation part        0.6639371 magnetization 

 Broyden mixing:
  rms(total) = 0.15837E-04    rms(broyden)= 0.15814E-04
  rms(prec ) = 0.25966E-04
  weight for this iteration     100.00

 eigenvalues of (default mixing * dielectric matrix)
  average eigenvalue GAMMA=   2.1478
  6.2967  3.2244  2.7118  2.4249  1.6716  1.3399  0.8129  0.9452  1.0253  1.0253

 Free energy of the ion-electron system (eV)
  ---------------------------------------------------
  alpha Z        PSCENC =         0.85010715
  Ewald energy   TEWEN  =        54.22475701
  -Hartree energ DENC   =      -537.23926684
  -exchange      EXHF   =         0.00000000
  -V(xc)+E(xc)   XCENC  =        41.22052449
  PAW double counting   =       383.60296508     -386.73770305
  entropy T*S    EENTRO =        -0.00000000
  eigenvalues    EBANDS =      -150.08402338
  atomic energy  EATOM  =       579.39041991
  Solvation  Ediel_sol  =         0.00000000
  ---------------------------------------------------
  free energy    TOTEN  =       -14.77221964 eV

  energy without entropy =      -14.77221964  energy(sigma->0) =      -14.77221964


--------------------------------------------------------------------------------------------------------




--------------------------------------- Iteration      5(  12)  ---------------------------------------


    POTLOK:  cpu time    0.0630: real time    0.0630
    SETDIJ:  cpu time    0.0006: real time    0.0006
     EDDAV:  cpu time    0.0355: real time    0.0356
       DOS:  cpu time    0.0001: real time    0.0001
    --------------------------------------------
      LOOP:  cpu time    0.0993: real time    0.0993

 eigenvalue-minimisations  :    28
 total energy-change (2. order) :-0.9019651E-06  (-0.3343114E-08)
 number of electron      10.0000101 magnetization 
 augmentation part        0.6639371 magnetization 

 Free energy of the ion-electron system (eV)
  ---------------------------------------------------
  alpha Z        PSCENC =         0.85010715
  Ewald energy   TEWEN  =        54.22475701
  -Hartree energ DENC   =      -537.23914908
  -exchange      EXHF   =         0.00000000
  -V(xc)+E(xc)   XCENC  =        41.22052520
  PAW double counting   =       383.60403307     -386.73875667
  entropy T*S    EENTRO =        -0.00000000
  eigenvalues    EBANDS =      -150.08415712
  atomic energy  EATOM  =       579.39041991
  Solvation  Ediel_sol  =         0.00000000
  ---------------------------------------------------
  free energy    TOTEN  =       -14.77222054 eV

  energy without entropy =      -14.77222054  energy(sigma->0) =      -14.77222054


--------------------------------------------------------------------------------------------------------




 average (electrostatic) potential at core
  the test charge radii are     0.7215  0.6991
  (the norm of the test charge is              1.0000)
       1 -83.3867       2 -61.3149



 E-fermi :  -7.7137     XC(G=0):  -1.1867     alpha+bet : -0.3423


 k-point     1 :       0.0000    0.0000    0.0000
  band No.  band energies     occupation 
      1     -29.2852      2.00000
      2     -13.7496      2.00000
      3     -11.6431      2.00000
      4     -11.6431      2.00000
      5      -8.7212      2.00000
      6      -1.6577      0.00000
      7      -1.6577      0.00000
      8      -0.2575      0.00000
      9       1.7022      0.00000
     10       1.8678      0.00000
     11       1.8678      0.00000
     12       1.8947      0.00000


--------------------------------------------------------------------------------------------------------


 soft charge-density along one line, spin component           1
         0         1         2         3         4         5         6         7         8         9
 total charge-density along one line

 pseudopotential strength for first ion, spin component:           1
 14.206  -0.593  -0.000  -0.156  -0.000   0.000   0.009   0.000
 -0.593   0.133   0.000   0.017   0.000  -0.000  -0.003  -0.000
 -0.000   0.000 -11.011   0.000  -0.000   0.415  -0.000   0.000
 -0.156   0.017   0.000 -11.173  -0.000  -0.000   0.436   0.000
 -0.000   0.000  -0.000  -0.000 -11.011   0.000   0.000   0.415
  0.000  -0.000   0.415  -0.000   0.000   0.088   0.000  -0.000
  0.009  -0.003  -0.000   0.436   0.000   0.000   0.083  -0.000
  0.000  -0.000   0.000   0.000   0.415  -0.000  -0.000   0.088
 total augmentation occupancy for first ion, spin component:           1
  1.947   0.185   0.000  -0.080   0.000   0.000   0.093   0.000
  0.185   0.068   0.000   0.207   0.000   0.000   0.063   0.000
  0.000   0.000   1.465   0.000   0.000   0.145   0.000   0.000
 -0.080   0.207   0.000   1.812   0.000   0.000   0.278  -0.000
  0.000   0.000   0.000  -0.000   1.465  -0.000   0.000   0.145
  0.000   0.000   0.145   0.000  -0.000   0.014   0.000   0.000
  0.093   0.063   0.000   0.278   0.000   0.000   0.065   0.000
  0.000   0.000   0.000  -0.000   0.145   0.000   0.000   0.014


------------------------ aborting loop because EDIFF is reached ----------------------------------------


    CHARGE:  cpu time    0.0098: real time    0.0098
    FORLOC:  cpu time    0.0042: real time    0.0042
    FORNL :  cpu time    0.0038: real time    0.0038
    STRESS:  cpu time    0.0525: real time    0.0525
    FORHAR:  cpu time    0.0197: real time    0.0197
    MIXING:  cpu time    0.0034: real time    0.0034
    OFIELD:  cpu time    0.0000: real time    0.0000

  FORCE on cell =-STRESS in cart. coord.  units (eV):
  Direction    XX          YY          ZZ          XY          YZ          ZX
  --------------------------------------------------------------------------------------
  Alpha Z     0.85011     0.85011     0.85011
  Ewald     -85.97602   -85.97602   226.17674     0.00000     0.00000     0.00000
  Hartree   142.16482   142.16482   252.90881    -0.00000    -0.00000    -0.00000
  E(xc)     -43.90581   -43.90581   -42.71960     0.00000     0.00000     0.00000
  Local    -193.06158  -193.06158  -586.72046    -0.00000     0.00000    -0.00000
  n-local   -18.71314   -18.71314   -30.32591     0.00000     0.00000     0.00000
  augment     6.25892     6.25892     5.62361     0.00000     0.00000    -0.00000
  Kinetic   191.61333   191.61333   176.27011    -0.00000    -0.00000     0.00000
  Fock        0.00000     0.00000     0.00000     0.00000     0.00000     0.00000
  -------------------------------------------------------------------------------------
  Total      -0.76938    -0.76938     2.06340    -0.00000     0.00000     0.00000
  in kB      -2.40759    -2.40759     6.45690    -0.00000     0.00000     0.00000
  external pressure =        0.55 kB  Pullay stress =        0.00 kB


 VOLUME and BASIS-vectors are now :
 -----------------------------------------------------------------------------
  energy-cutoff  :      400.00
  volume of cell :      512.00
      direct lattice vectors                 reciprocal lattice vectors
     8.000000000  0.000000000  0.000000000     0.125000000  0.000000000  0.000000000
     0.000000000  8.000000000  0.000000000     0.000000000  0.125000000  0.000000000
     0.000000000  0.000000000  8.000000000     0.000000000  0.000000000  0.125000000

  length of vectors
     8.000000000  8.000000000  8.000000000     0.125000000  0.125000000  0.125000000


 FORCES acting on ions
    electron-ion (+dipol)            ewald-force                    non-local-force                 convergence-correction
 -----------------------------------------------------------------------------------------------
   0.120E-14 0.000E+00 0.207E+03   -.794E-16 0.239E-16 -.271E+03   0.000E+00 0.162E-26 0.610E+02   -.291E-13 -.283E-13 -.324E-03
   -.548E-15 0.355E-14 -.240E+03   0.342E-16 0.236E-16 0.271E+03   0.000E+00 0.319E-28 -.281E+02   -.914E-14 0.249E-14 -.496E-04
 -----------------------------------------------------------------------------------------------
   0.654E-15 0.355E-14 -.329E+02   -.451E-16 0.475E-16 0.000E+00   0.000E+00 0.165E-26 0.329E+02   -.383E-13 -.258E-13 -.374E-03


 POSITION                                       TOTAL-FORCE (eV/Angst)
 -----------------------------------------------------------------------------------
      0.00000      0.00000      0.00000        -0.000000      0.000000     -2.516159
      0.00000      0.00000      1.12300         0.000000     -0.000000      2.516159
 -----------------------------------------------------------------------------------
    total drift:                               -0.000000     -0.000000     -0.000742


--------------------------------------------------------------------------------------------------------



  FREE ENERGIE OF THE ION-ELECTRON SYSTEM (eV)
  ---------------------------------------------------
  free  energy   TOTEN  =       -14.77222054 eV

  energy  without entropy=      -14.77222054  energy(sigma->0) =      -14.77222054

 d Force =-0.9079951E-02[-0.101E+00, 0.825E-01]  d Energy =-0.4633887E-02-0.445E-02
 d Force =-0.1045376E+02[-0.108E+02,-0.101E+02]  d Ewald  =-0.1044728E+02-0.648E-02


--------------------------------------------------------------------------------------------------------


    POTLOK:  cpu time    0.0621: real time    0.0621


--------------------------------------------------------------------------------------------------------


 Finite differences progress:
  Degree of freedom:   2/  2
  Displacement:        2/  2
  Total:               4/  4

 SECOND DERIVATIVES (NOT SYMMETRIZED)
 ------------------------------------
               1Z          2Z 
  1Z  -114.737706  114.737706
  2Z   114.458012 -114.458012


 Eigenvectors and eigenvalues of the dynamical matrix
 ----------------------------------------------------


   1 f  =   63.887522 THz   401.417137 2PiTHz 2131.058268 cm-1   264.217646 meV
             X         Y         Z           dx          dy          dz
      0.000000  0.000000  0.000000            0           0   -0.655281  
      0.000000  0.000000  1.143000            0           0    0.755385  

   2 f/i=    0.038591 THz     0.242476 2PiTHz    1.287266 cm-1     0.159601 meV
             X         Y         Z           dx          dy          dz
      0.000000  0.000000  0.000000            0           0   -0.755385  
      0.000000  0.000000  1.143000            0           0   -0.655281  

 Finite differences POTIM=   2.0000000000000000E-002
  LATTYP: Found a simple cubic cell.
 ALAT       =     8.0000000000
  
  Lattice vectors:
  
 A1 = (   8.0000000000,   0.0000000000,   0.0000000000)
 A2 = (   0.0000000000,   8.0000000000,   0.0000000000)
 A3 = (   0.0000000000,   0.0000000000,   8.0000000000)


Analysis of symmetry for initial positions (statically):
=====================================================================
 Subroutine PRICEL returns:
 Original cell was already a primitive cell.
 

 Routine SETGRP: Setting up the symmetry group for a 
 simple cubic supercell.


 Subroutine GETGRP returns: Found  8 space group operations
 (whereof  8 operations were pure point group operations)
 out of a pool of 48 trial point group operations.


The static configuration has the point symmetry C_4v.


Analysis of symmetry for dynamics (positions and initial velocities):
=====================================================================
 Subroutine PRICEL returns:
 Original cell was already a primitive cell.
 

 Routine SETGRP: Setting up the symmetry group for a 
 simple cubic supercell.


 Subroutine GETGRP returns: Found  8 space group operations
 (whereof  8 operations were pure point group operations)
 out of a pool of 48 trial point group operations.


The dynamic configuration has the point symmetry C_4v.


Analysis of constrained symmetry for selective dynamics:
=====================================================================
 Subroutine PRICEL returns:
 Original cell was already a primitive cell.
 

 Routine SETGRP: Setting up the symmetry group for a 
 simple cubic supercell.


 Subroutine GETGRP returns: Found  8 space group operations
 (whereof  8 operations were pure point group operations)
 out of a pool of 48 trial point group operations.


The constrained configuration has the point symmetry C_4v.


 Subroutine INISYM returns: Found  8 space group operations
 (whereof  8 operations are pure point group operations),
 and found     1 'primitive' translations


 KPOINTS: Gamma-point only                        
  k-points in reciprocal lattice
Space group operators:
 irot       det(A)        alpha          n_x          n_y          n_z        tau_x        tau_y        tau_z
    1     1.000000     0.000000     1.000000     0.000000     0.000000     0.000000     0.000000     0.000000
    2     1.000000    90.000000     0.000000     0.000000    -1.000000     0.000000     0.000000     0.000000
    3     1.000000   180.000000     0.000000     0.000000     1.000000     0.000000     0.000000     0.000000
    4     1.000000    90.000000     0.000000     0.000000     1.000000     0.000000     0.000000     0.000000
    5    -1.000000   180.000000     1.000000     0.000000     0.000000     0.000000     0.000000     0.000000
    6    -1.000000   180.000000     0.707107     0.707107     0.000000     0.000000     0.000000     0.000000
    7    -1.000000   180.000000     0.000000     1.000000     0.000000     0.000000     0.000000     0.000000
    8    -1.000000   180.000000     0.707107    -0.707107     0.000000     0.000000     0.000000     0.000000
 writing wavefunctions
     LOOP+:  cpu time    1.4932: real time    1.4983
    4ORBIT:  cpu time    0.0000: real time    0.0000

 total amount of memory used by VASP MPI-rank0    46485. kBytes
=======================================================================

   base      :      30000. kBytes
   nonl-proj :       1490. kBytes
   fftplans  :       4661. kBytes
   grid      :       9881. kBytes
   one-center:          6. kBytes
   wavefun   :        447. kBytes

  
  
 General timing and accounting informations for this job:
 ========================================================
  
                  Total CPU time used (sec):        8.311
                            User time (sec):        7.780
                          System time (sec):        0.531
                         Elapsed time (sec):        8.619
  
                   Maximum memory used (kb):       58872.
                   Average memory used (kb):           0.
  
                          Minor page faults:       162211
                          Major page faults:           37
                 Voluntary context switches:         1252
