 running on    4 total cores
 distrk:  each k-point on    4 cores,    1 groups
 distr:  one band on    1 cores,    4 groups
 using from now: INCAR     
 vasp.5.4.4.18Apr17-6-g9f103f2a35 (build Dec 28 2021 15:39:15) complex           
 POSCAR found :  2 types and       2 ions
 scaLAPACK will be used
 LDA part: xc-table for Pade appr. of Perdew

 ----------------------------------------------------------------------------- 
|                                                                             |
|           W    W    AA    RRRRR   N    N  II  N    N   GGGG   !!!           |
|           W    W   A  A   R    R  NN   N  II  NN   N  G    G  !!!           |
|           W    W  A    A  R    R  N N  N  II  N N  N  G       !!!           |
|           W WW W  AAAAAA  RRRRR   N  N N  II  N  N N  G  GGG   !            |
|           WW  WW  A    A  R   R   N   NN  II  N   NN  G    G                |
|           W    W  A    A  R    R  N    N  II  N    N   GGGG   !!!           |
|                                                                             |
|      Your generating k-point grid is not commensurate to the symmetry       |
|      of the lattice.  This can cause   slow convergence with respect        |
|      to k-points for HF type calculations                                   |
|      suggested SOLUTIONS:                                                   |
|       ) if not already the case, use automatic k-point generation           |
|       ) shift your grid to Gamma (G) (e.g. required for hex or fcc lattice) |
|                                                                             |
 ----------------------------------------------------------------------------- 

 POSCAR, INCAR and KPOINTS ok, starting setup
 FFT: planning ...
 WAVECAR not read
 entering main loop
       N       E                     dE             d eps       ncg     rms          rms(c)
DAV:   1     0.778499629222E+02    0.77850E+02   -0.21472E+03    24   0.382E+02
DAV:   2    -0.179701898785E+01   -0.79647E+02   -0.78913E+02    40   0.123E+02
DAV:   3    -0.155081142017E+02   -0.13711E+02   -0.13705E+02    36   0.608E+01
DAV:   4    -0.155947020717E+02   -0.86588E-01   -0.86585E-01    24   0.551E+00
DAV:   5    -0.155953717726E+02   -0.66970E-03   -0.66969E-03    40   0.478E-01    0.618E+00
DAV:   6    -0.149584798885E+02    0.63689E+00   -0.34164E+00    24   0.994E+00    0.319E+00
DAV:   7    -0.148304298170E+02    0.12805E+00   -0.60689E-01    36   0.372E+00    0.163E+00
DAV:   8    -0.147933579923E+02    0.37072E-01   -0.12958E-01    24   0.225E+00    0.378E-01
DAV:   9    -0.147925595428E+02    0.79845E-03   -0.67042E-03    28   0.495E-01    0.987E-02
DAV:  10    -0.147934793250E+02   -0.91978E-03   -0.11380E-03    24   0.186E-01    0.340E-02
DAV:  11    -0.147956963564E+02   -0.22170E-02   -0.51889E-04    28   0.100E-01    0.187E-02
DAV:  12    -0.147963164938E+02   -0.62014E-03   -0.57466E-05    32   0.396E-02    0.105E-02
DAV:  13    -0.147971678263E+02   -0.85133E-03   -0.10429E-04    24   0.413E-02    0.367E-03
DAV:  14    -0.147973041998E+02   -0.13637E-03   -0.75436E-06    28   0.122E-02    0.217E-03
DAV:  15    -0.147973934803E+02   -0.89280E-04   -0.71665E-06    24   0.953E-03    0.845E-04
DAV:  16    -0.147974031352E+02   -0.96549E-05   -0.49778E-07    28   0.259E-03    0.383E-04
DAV:  17    -0.147974072951E+02   -0.41599E-05   -0.41993E-07    24   0.226E-03    0.220E-04
DAV:  18    -0.147974082435E+02   -0.94846E-06   -0.53982E-08    24   0.939E-04
   1 F= -.14797408E+02 E0= -.14797408E+02  d E =-.211147E-10
 Finite differences POTIM= 0.02000 DOF=   2
 bond charge predicted
       N       E                     dE             d eps       ncg     rms          rms(c)
DAV:   1    -0.147724820207E+02    0.24925E-01   -0.23327E+00    24   0.121E+01    0.370E-01
DAV:   2    -0.147729600010E+02   -0.47798E-03   -0.34405E-02    24   0.149E+00    0.225E-01
DAV:   3    -0.147719030793E+02    0.10569E-02   -0.42092E-03    24   0.448E-01    0.525E-02
DAV:   4    -0.147719228808E+02   -0.19802E-04   -0.13209E-04    28   0.847E-02    0.298E-02
DAV:   5    -0.147719397835E+02   -0.16903E-04   -0.24713E-05    24   0.268E-02    0.815E-03
DAV:   6    -0.147719543620E+02   -0.14579E-04   -0.57825E-06    32   0.127E-02    0.270E-03
DAV:   7    -0.147719785778E+02   -0.24216E-04   -0.16349E-06    32   0.758E-03    0.156E-03
DAV:   8    -0.147720020379E+02   -0.23460E-04   -0.14479E-06    32   0.581E-03    0.106E-03
DAV:   9    -0.147720160017E+02   -0.13964E-04   -0.87550E-07    32   0.419E-03    0.477E-04
DAV:  10    -0.147720207165E+02   -0.47148E-05   -0.17872E-07    28   0.158E-03    0.248E-04
DAV:  11    -0.147720230878E+02   -0.23713E-05   -0.80956E-08    32   0.922E-04    0.946E-05
DAV:  12    -0.147720233988E+02   -0.31097E-06   -0.85281E-09    24   0.350E-04
   2 F= -.14772023E+02 E0= -.14772023E+02  d E =-.108736E-11
 Finite differences progress:
  Degree of freedom:   1/  2
  Displacement:        1/  2
  Total:               1/  4
 bond charge predicted
       N       E                     dE             d eps       ncg     rms          rms(c)
DAV:   1    -0.147808343005E+02   -0.88112E-02   -0.92449E+00    32   0.238E+01    0.755E-01
DAV:   2    -0.147795283424E+02    0.13060E-02   -0.11977E-01    24   0.277E+00    0.421E-01
DAV:   3    -0.147764063424E+02    0.31220E-02   -0.15440E-02    40   0.822E-01    0.112E-01
DAV:   4    -0.147765218572E+02   -0.11551E-03   -0.89707E-04    24   0.185E-01    0.613E-02
DAV:   5    -0.147765766401E+02   -0.54783E-04   -0.14110E-04    24   0.579E-02    0.280E-02
DAV:   6    -0.147766628020E+02   -0.86162E-04   -0.25873E-05    28   0.279E-02    0.622E-03
DAV:   7    -0.147767187326E+02   -0.55931E-04   -0.13278E-05    24   0.196E-02    0.508E-03
DAV:   8    -0.147767805638E+02   -0.61831E-04   -0.12042E-05    24   0.173E-02    0.218E-03
DAV:   9    -0.147768018554E+02   -0.21292E-04   -0.19101E-06    24   0.766E-03    0.861E-04
DAV:  10    -0.147768088228E+02   -0.69674E-05   -0.33718E-07    28   0.266E-03    0.402E-04
DAV:  11    -0.147768145410E+02   -0.57182E-05   -0.45956E-07    24   0.265E-03    0.261E-04
DAV:  12    -0.147768150983E+02   -0.55729E-06   -0.21504E-08    28   0.610E-04
   3 F= -.14776815E+02 E0= -.14776815E+02  d E =-.287455E-10
 Finite differences progress:
  Degree of freedom:   1/  2
  Displacement:        2/  2
  Total:               2/  4
 bond charge predicted
       N       E                     dE             d eps       ncg     rms          rms(c)
DAV:   1    -0.147746828591E+02    0.21317E-02   -0.24762E+00    24   0.124E+01    0.438E-01
DAV:   2    -0.147767187042E+02   -0.20358E-02   -0.27765E-02    24   0.124E+00    0.259E-01
DAV:   3    -0.147768574675E+02   -0.13876E-03   -0.28082E-03    32   0.270E-01    0.129E-01
DAV:   4    -0.147768546884E+02    0.27790E-05   -0.37102E-04    24   0.104E-01    0.327E-02
DAV:   5    -0.147768536197E+02    0.10688E-05   -0.87941E-05    24   0.500E-02    0.532E-03
DAV:   6    -0.147768544265E+02   -0.80681E-06   -0.52041E-06    28   0.137E-02
   4 F= -.14776854E+02 E0= -.14776854E+02  d E =-.215436E-10
 Finite differences progress:
  Degree of freedom:   2/  2
  Displacement:        1/  2
  Total:               3/  4
 bond charge predicted
       N       E                     dE             d eps       ncg     rms          rms(c)
DAV:   1    -0.147816959360E+02   -0.48423E-02   -0.40462E+00    24   0.144E+01    0.795E-01
DAV:   2    -0.147747175145E+02    0.69784E-02   -0.61451E-02    24   0.169E+00    0.483E-01
DAV:   3    -0.147719571101E+02    0.27604E-02   -0.18174E-02    32   0.935E-01    0.149E-01
DAV:   4    -0.147718417879E+02    0.11532E-03   -0.13004E-03    32   0.200E-01    0.674E-02
DAV:   5    -0.147719127465E+02   -0.70959E-04   -0.13973E-04    24   0.728E-02    0.234E-02
DAV:   6    -0.147719771270E+02   -0.64380E-04   -0.21131E-05    32   0.325E-02    0.541E-03
DAV:   7    -0.147720789624E+02   -0.10184E-03   -0.13161E-05    24   0.149E-02    0.355E-03
DAV:   8    -0.147721617280E+02   -0.82766E-04   -0.67459E-06    28   0.114E-02    0.208E-03
DAV:   9    -0.147721980925E+02   -0.36365E-04   -0.21160E-06    24   0.649E-03    0.795E-04
DAV:  10    -0.147722158297E+02   -0.17737E-04   -0.10357E-06    24   0.348E-03    0.503E-04
DAV:  11    -0.147722196380E+02   -0.38082E-05   -0.15518E-07    32   0.146E-03    0.158E-04
DAV:  12    -0.147722205399E+02   -0.90197E-06   -0.33431E-08    28   0.652E-04
   5 F= -.14772221E+02 E0= -.14772221E+02  d E =-.107749E-11
 Finite differences progress:
  Degree of freedom:   2/  2
  Displacement:        2/  2
  Total:               4/  4
 Finite differences POTIM=   2.0000000000000000E-002
 writing wavefunctions
