<?xml version="1.0" encoding="ISO-8859-1"?>
<modeling>
 <generator>
  <i name="program" type="string">vasp </i>
  <i name="version" type="string">5.4.4.18Apr17-6-g9f103f2a35  </i>
  <i name="subversion" type="string">(build Dec 28 2021 15:39:15) complex            parallel </i>
  <i name="platform" type="string">LinuxGNU </i>
  <i name="date" type="string">2021 12 31 </i>
  <i name="time" type="string">11:01:03 </i>
 </generator>
 <incar>
  <i type="string" name="SYSTEM"> CO dimer in a box</i>
  <i type="string" name="PREC">normal</i>
  <i type="int" name="IBRION">     5</i>
  <i type="int" name="NFREE">     2</i>
  <i type="int" name="NSW">     1</i>
  <i name="POTIM">      0.02000000</i>
  <i type="int" name="ISMEAR">     0</i>
  <v type="int" name="KPOINT_BSE">    -1     0     0     0</v>
 </incar>
 <structure name="primitive_cell" >
  <crystal>
   <varray name="basis" >
    <v>       8.00000000       0.00000000       0.00000000 </v>
    <v>       0.00000000       8.00000000       0.00000000 </v>
    <v>       0.00000000       0.00000000       8.00000000 </v>
   </varray>
   <i name="volume">    512.00000000 </i>
   <varray name="rec_basis" >
    <v>       0.12500000       0.00000000       0.00000000 </v>
    <v>       0.00000000       0.12500000       0.00000000 </v>
    <v>       0.00000000       0.00000000       0.12500000 </v>
   </varray>
  </crystal>
  <varray name="positions" >
   <v>       0.00000000       0.00000000       0.00000000 </v>
   <v>       0.00000000       0.00000000       0.14287500 </v>
  </varray>
 </structure>
 <varray name="primitive_index" >
  <v type="int" >        1 </v>
  <v type="int" >        2 </v>
 </varray>
 <kpoints>
  <varray name="kpointlist" >
   <v>       0.00000000       0.00000000       0.00000000 </v>
  </varray>
  <varray name="weights" >
   <v>       1.00000000 </v>
  </varray>
 </kpoints>
 <parameters>
  <separator name="general" >
   <i type="string" name="SYSTEM">CO dimer in a box</i>
   <i type="logical" name="LCOMPAT"> F  </i>
  </separator>
  <separator name="electronic" >
   <i type="string" name="PREC">normal</i>
   <i name="ENMAX">    400.00000000</i>
   <i name="ENAUG">    644.87300000</i>
   <i name="EDIFF">      0.00000100</i>
   <i type="int" name="IALGO">    38</i>
   <i type="int" name="IWAVPR">    11</i>
   <i type="int" name="NBANDS">    12</i>
   <i name="NELECT">     10.00000000</i>
   <i type="int" name="TURBO">     0</i>
   <i type="int" name="IRESTART">     0</i>
   <i type="int" name="NREBOOT">     0</i>
   <i type="int" name="NMIN">     0</i>
   <i name="EREF">      0.00000000</i>
   <separator name="electronic smearing" >
    <i type="int" name="ISMEAR">     0</i>
    <i name="SIGMA">      0.20000000</i>
    <i name="KSPACING">      0.50000000</i>
    <i type="logical" name="KGAMMA"> T  </i>
   </separator>
   <separator name="electronic projectors" >
    <i type="logical" name="LREAL"> F  </i>
    <v name="ROPT">      0.00000000      0.00000000</v>
    <i type="int" name="LMAXPAW">  -100</i>
    <i type="int" name="LMAXMIX">     2</i>
    <i type="logical" name="NLSPLINE"> F  </i>
   </separator>
   <separator name="electronic startup" >
    <i type="int" name="ISTART">     0</i>
    <i type="int" name="ICHARG">     2</i>
    <i type="int" name="INIWAV">     1</i>
   </separator>
   <separator name="electronic spin" >
    <i type="int" name="ISPIN">     1</i>
    <i type="logical" name="LNONCOLLINEAR"> F  </i>
    <v name="MAGMOM">      1.00000000      1.00000000</v>
    <i name="NUPDOWN">     -1.00000000</i>
    <i type="logical" name="LSORBIT"> F  </i>
    <v name="SAXIS">      0.00000000      0.00000000      1.00000000</v>
    <i type="logical" name="LSPIRAL"> F  </i>
    <v name="QSPIRAL">      0.00000000      0.00000000      0.00000000</v>
    <i type="logical" name="LZEROZ"> F  </i>
   </separator>
   <separator name="electronic exchange-correlation" >
    <i type="logical" name="LASPH"> F  </i>
    <i type="logical" name="LMETAGGA"> F  </i>
   </separator>
   <separator name="electronic convergence" >
    <i type="int" name="NELM">    60</i>
    <i type="int" name="NELMDL">    -5</i>
    <i type="int" name="NELMIN">     2</i>
    <i name="ENINI">    400.00000000</i>
    <separator name="electronic convergence detail" >
     <i type="logical" name="LDIAG"> T  </i>
     <i type="logical" name="LSUBROT"> F  </i>
     <i name="WEIMIN">      0.00100000</i>
     <i name="EBREAK">      0.00000002</i>
     <i name="DEPER">      0.30000000</i>
     <i type="int" name="NRMM">     4</i>
     <i name="TIME">      0.40000000</i>
    </separator>
   </separator>
   <separator name="electronic mixer" >
    <i name="AMIX">      0.40000000</i>
    <i name="BMIX">      1.00000000</i>
    <i name="AMIN">      0.10000000</i>
    <i name="AMIX_MAG">      1.60000000</i>
    <i name="BMIX_MAG">      1.00000000</i>
    <separator name="electronic mixer details" >
     <i type="int" name="IMIX">     4</i>
     <i type="logical" name="MIXFIRST"> F  </i>
     <i type="int" name="MAXMIX">   -45</i>
     <i name="WC">    100.00000000</i>
     <i type="int" name="INIMIX">     1</i>
     <i type="int" name="MIXPRE">     1</i>
     <i type="int" name="MREMOVE">     5</i>
    </separator>
   </separator>
   <separator name="electronic dipolcorrection" >
    <i type="logical" name="LDIPOL"> F  </i>
    <i type="logical" name="LMONO"> F  </i>
    <i type="int" name="IDIPOL">     0</i>
    <i name="EPSILON">      1.00000000</i>
    <v name="DIPOL">   -100.00000000   -100.00000000   -100.00000000</v>
    <i name="EFIELD">      0.00000000</i>
   </separator>
  </separator>
  <separator name="grids" >
   <i type="int" name="NGX">    40</i>
   <i type="int" name="NGY">    40</i>
   <i type="int" name="NGZ">    40</i>
   <i type="int" name="NGXF">    80</i>
   <i type="int" name="NGYF">    80</i>
   <i type="int" name="NGZF">    80</i>
   <i type="logical" name="ADDGRID"> F  </i>
  </separator>
  <separator name="ionic" >
   <i type="int" name="NSW">    61</i>
   <i type="int" name="IBRION">     5</i>
   <i type="int" name="MDALGO">     0</i>
   <i type="int" name="ISIF">     2</i>
   <i name="PSTRESS">      0.00000000</i>
   <i name="EDIFFG">      0.00001000</i>
   <i type="int" name="NFREE">     2</i>
   <i name="POTIM">      0.02000000</i>
   <i name="SMASS">     -3.00000000</i>
   <i name="SCALEE">      1.00000000</i>
  </separator>
  <separator name="ionic md" >
   <i name="TEBEG">      0.00010000</i>
   <i name="TEEND">      0.00010000</i>
   <i type="int" name="NBLOCK">     1</i>
   <i type="int" name="KBLOCK">    61</i>
   <i type="int" name="NPACO">   256</i>
   <i name="APACO">     16.00000000</i>
  </separator>
  <separator name="symmetry" >
   <i type="int" name="ISYM">     2</i>
   <i name="SYMPREC">      0.00001000</i>
  </separator>
  <separator name="dos" >
   <i type="int" name="LORBIT">     0</i>
   <v name="RWIGS">     -1.00000000     -1.00000000</v>
   <i type="int" name="NEDOS">   301</i>
   <i name="EMIN">     10.00000000</i>
   <i name="EMAX">    -10.00000000</i>
   <i name="EFERMI">      0.00000000</i>
  </separator>
  <separator name="writing" >
   <i type="int" name="NWRITE">     2</i>
   <i type="logical" name="LWAVE"> T  </i>
   <i type="logical" name="LDOWNSAMPLE"> F  </i>
   <i type="logical" name="LCHARG"> T  </i>
   <i type="logical" name="LPARD"> F  </i>
   <i type="logical" name="LVTOT"> F  </i>
   <i type="logical" name="LVHAR"> F  </i>
   <i type="logical" name="LELF"> F  </i>
   <i type="logical" name="LOPTICS"> F  </i>
   <v name="STM">      0.00000000      0.00000000      0.00000000      0.00000000      0.00000000      0.00000000      0.00000000</v>
  </separator>
  <separator name="performance" >
   <i type="int" name="NPAR">     4</i>
   <i type="int" name="NSIM">     4</i>
   <i type="int" name="NBLK">    -1</i>
   <i type="logical" name="LPLANE"> T  </i>
   <i type="logical" name="LSCALAPACK"> T  </i>
   <i type="logical" name="LSCAAWARE"> F  </i>
   <i type="logical" name="LSCALU"> F  </i>
   <i type="logical" name="LASYNC"> F  </i>
   <i type="logical" name="LORBITALREAL"> F  </i>
  </separator>
  <separator name="miscellaneous" >
   <i type="int" name="IDIOT">     3</i>
   <i type="int" name="ISPECIAL">     0</i>
   <i type="logical" name="LMUSIC"> F  </i>
   <v name="POMASS">     16.00000000     12.01100000</v>
   <v name="DARWINR">      0.00000000      0.00000000</v>
   <v name="DARWINV">      1.00000000      1.00000000</v>
   <i type="logical" name="LCORR"> T  </i>
  </separator>
  <i type="logical" name="GGA_COMPAT"> T  </i>
  <i type="logical" name="LBERRY"> F  </i>
  <i type="int" name="ICORELEVEL">     0</i>
  <i type="logical" name="LDAU"> F  </i>
  <i type="int" name="I_CONSTRAINED_M">     0</i>
  <separator name="electronic exchange-correlation" >
   <i type="string" name="GGA">--</i>
   <i type="int" name="VOSKOWN">     0</i>
   <i type="logical" name="LHFCALC"> F  </i>
   <i type="string" name="PRECFOCK"></i>
   <i type="logical" name="LSYMGRAD"> F  </i>
   <i type="logical" name="LHFONE"> F  </i>
   <i type="logical" name="LRHFCALC"> F  </i>
   <i type="logical" name="LTHOMAS"> F  </i>
   <i type="logical" name="LMODELHF"> F  </i>
   <i name="ENCUT4O">     -1.00000000</i>
   <i type="int" name="EXXOEP">     0</i>
   <i type="int" name="FOURORBIT">     0</i>
   <i name="AEXX">      0.00000000</i>
   <i name="HFALPHA">      0.00000000</i>
   <i name="MCALPHA">      0.00000000</i>
   <i name="ALDAX">      1.00000000</i>
   <i name="AGGAX">      1.00000000</i>
   <i name="ALDAC">      1.00000000</i>
   <i name="AGGAC">      1.00000000</i>
   <i type="int" name="NKREDX">     1</i>
   <i type="int" name="NKREDY">     1</i>
   <i type="int" name="NKREDZ">     1</i>
   <i type="logical" name="SHIFTRED"> F  </i>
   <i type="logical" name="ODDONLY"> F  </i>
   <i type="logical" name="EVENONLY"> F  </i>
   <i type="int" name="LMAXFOCK">     0</i>
   <i type="int" name="NMAXFOCKAE">     0</i>
   <i type="logical" name="LFOCKAEDFT"> F  </i>
   <i name="HFSCREEN">      0.00000000</i>
   <i name="HFSCREENC">      0.00000000</i>
   <i type="int" name="NBANDSGWLOW">     0</i>
  </separator>
  <separator name="vdW DFT" >
   <i type="logical" name="LUSE_VDW"> F  </i>
   <i name="Zab_VDW">     -0.84910000</i>
   <i name="PARAM1">      0.12340000</i>
   <i name="PARAM2">      1.00000000</i>
   <i name="PARAM3">      0.00000000</i>
  </separator>
  <separator name="model GW" >
   <i type="int" name="MODEL_GW">     0</i>
   <i name="MODEL_EPS0">    153.60000000</i>
   <i name="MODEL_ALPHA">      1.00000000</i>
  </separator>
  <separator name="linear response parameters" >
   <i type="logical" name="LEPSILON"> F  </i>
   <i type="logical" name="LRPA"> F  </i>
   <i type="logical" name="LNABLA"> F  </i>
   <i type="logical" name="LVEL"> F  </i>
   <i type="int" name="KINTER">     0</i>
   <i name="CSHIFT">      0.10000000</i>
   <i name="OMEGAMAX">     -1.00000000</i>
   <i name="DEG_THRESHOLD">      0.00200000</i>
   <i name="RTIME">     -0.10000000</i>
   <i name="WPLASMAI">      0.00000000</i>
   <v name="DFIELD">      0.00000000      0.00000000      0.00000000</v>
   <v name="WPLASMA">      0.00000000      0.00000000      0.00000000      0.00000000      0.00000000      0.00000000      0.00000000      0.00000000      0.00000000</v>
  </separator>
  <separator name="orbital magnetization" >
   <i type="logical" name="NUCIND"> F  </i>
   <v name="MAGPOS">      0.00000000      0.00000000      0.00000000</v>
   <i type="logical" name="LNICSALL"> T  </i>
   <i type="logical" name="ORBITALMAG"> F  </i>
   <i type="logical" name="LMAGBLOCH"> F  </i>
   <i type="logical" name="LCHIMAG"> F  </i>
   <i type="logical" name="LGAUGE"> T  </i>
   <i type="int" name="MAGATOM">     0</i>
   <v name="MAGDIPOL">      0.00000000      0.00000000      0.00000000</v>
   <v name="AVECCONST">      0.00000000      0.00000000      0.00000000</v>
  </separator>
  <separator name="response functions" >
   <i type="logical" name="LADDER"> F  </i>
   <i type="logical" name="LRPAFORCE"> F  </i>
   <i type="logical" name="LFXC"> F  </i>
   <i type="logical" name="LHARTREE"> T  </i>
   <i type="int" name="IBSE">     0</i>
   <v type="int" name="KPOINT">    -1     0     0     0</v>
   <i type="logical" name="LTCTE"> F  </i>
   <i type="logical" name="LTETE"> F  </i>
   <i type="logical" name="LTRIPLET"> F  </i>
   <i type="logical" name="LFXCEPS"> F  </i>
   <i type="logical" name="LFXHEG"> F  </i>
   <i type="int" name="NATURALO">     2</i>
   <i type="logical" name="L2ORDER"> F  </i>
   <i type="logical" name="LMP2LT"> F  </i>
   <i type="logical" name="LUSEW"> F  </i>
   <i name="ENCUTGW">     -2.00000000</i>
   <i name="ENCUTGWSOFT">     -2.00000000</i>
   <i name="ENCUTLF">     -1.00000000</i>
   <i type="int" name="LMAXMP2">    -1</i>
   <i name="SCISSOR">      0.00000000</i>
   <i type="int" name="NOMEGA">     0</i>
   <i type="int" name="NOMEGAR">     0</i>
   <i type="int" name="NBANDSGW">    -1</i>
   <i type="int" name="NBANDSO">    -1</i>
   <i type="int" name="NBANDSV">    -1</i>
   <i type="int" name="NELM">     1</i>
   <i type="int" name="NELMHF">     1</i>
   <i type="int" name="DIM">     3</i>
   <i type="int" name="ANTIRES">     0</i>
   <i name="OMEGAMAX">    -30.00000000</i>
   <i name="OMEGAMIN">    -30.00000000</i>
   <i name="OMEGATL">   -200.00000000</i>
   <i type="int" name="OMEGAGRID">   140</i>
   <i name="CSHIFT">     -0.10000000</i>
   <i type="logical" name="SELFENERGY"> F  </i>
   <i type="logical" name="LSPECTRAL"> F  </i>
   <i type="logical" name="LSPECTRALGW"> F  </i>
   <i type="logical" name="LSINGLES"> F  </i>
   <i type="logical" name="LFERMIGW"> F  </i>
   <i type="logical" name="ODDONLYGW"> F  </i>
   <i type="logical" name="EVENONLYGW"> F  </i>
   <i type="int" name="NKREDLFX">     1</i>
   <i type="int" name="NKREDLFY">     1</i>
   <i type="int" name="NKREDLFZ">     1</i>
   <i type="int" name="MAXMEM">  2800</i>
   <i type="int" name="TELESCOPE">     0</i>
   <i type="int" name="TAUPAR">     1</i>
   <i type="int" name="OMEGAPAR">    -1</i>
   <i name="LAMBDA">      1.00000000</i>
  </separator>
  <separator name="External order field" >
   <i name="OFIELD_KAPPA">      0.00000000</i>
   <v name="OFIELD_K">      0.00000000      0.00000000      0.00000000</v>
   <i name="OFIELD_Q6_NEAR">      0.00000000</i>
   <i name="OFIELD_Q6_FAR">      0.00000000</i>
   <i name="OFIELD_A">      0.00000000</i>
  </separator>
 </parameters>
 <atominfo>
  <atoms>       2 </atoms>
  <types>       2 </types>
  <array name="atoms" >
   <dimension dim="1">ion</dimension>
   <field type="string">element</field>
   <field type="int">atomtype</field>
   <set>
    <rc><c>O </c><c>   1</c></rc>
    <rc><c>C </c><c>   2</c></rc>
   </set>
  </array>
  <array name="atomtypes" >
   <dimension dim="1">type</dimension>
   <field type="int">atomspertype</field>
   <field type="string">element</field>
   <field>mass</field>
   <field>valence</field>
   <field type="string">pseudopotential</field>
   <set>
    <rc><c>   1</c><c>O </c><c>     16.00000000</c><c>      6.00000000</c><c> PAW_RPBE O 08Apr2002                   </c></rc>
    <rc><c>   1</c><c>C </c><c>     12.01100000</c><c>      4.00000000</c><c> PAW_RPBE C 08Apr2002                   </c></rc>
   </set>
  </array>
 </atominfo>
 <structure name="initialpos" >
  <crystal>
   <varray name="basis" >
    <v>       8.00000000       0.00000000       0.00000000 </v>
    <v>       0.00000000       8.00000000       0.00000000 </v>
    <v>       0.00000000       0.00000000       8.00000000 </v>
   </varray>
   <i name="volume">    512.00000000 </i>
   <varray name="rec_basis" >
    <v>       0.12500000       0.00000000       0.00000000 </v>
    <v>       0.00000000       0.12500000       0.00000000 </v>
    <v>       0.00000000       0.00000000       0.12500000 </v>
   </varray>
  </crystal>
  <varray name="positions" >
   <v>       0.00000000       0.00000000       0.00000000 </v>
   <v>       0.00000000       0.00000000       0.14287500 </v>
  </varray>
  <varray name="selective"  type="logical" >
   <v type="logical" >  F  F  T </v>
   <v type="logical" >  F  F  T </v>
  </varray>
  <nose>
   <v>      -3.00000000       0.00000000       0.00010000       0.00010000 </v>
  </nose>
 </structure>
 <calculation>
  <scstep>
   <time name="dav">    0.03    0.03</time>
   <time name="total">    0.11    0.11</time>
   <energy>
    <i name="alphaZ">      0.85010715 </i>
    <i name="ewald">     48.90784304 </i>
    <i name="hartreedc">   -512.54826743 </i>
    <i name="XCdc">     39.84835132 </i>
    <i name="pawpsdc">    283.82984571 </i>
    <i name="pawaedc">   -286.83001101 </i>
    <i name="eentropy">     -0.00000038 </i>
    <i name="bandstr">    -75.59832538 </i>
    <i name="atom">    579.39041991 </i>
    <i name="e_fr_energy">     77.84996292 </i>
    <i name="e_wo_entrp">     77.84996330 </i>
    <i name="e_0_energy">     77.84996311 </i>
   </energy>
  </scstep>
  <scstep>
   <time name="dav">    0.05    0.05</time>
   <time name="total">    0.05    0.05</time>
   <energy>
    <i name="e_fr_energy">     -1.79701899 </i>
    <i name="e_wo_entrp">     -1.79701899 </i>
    <i name="e_0_energy">     -1.79701899 </i>
   </energy>
  </scstep>
  <scstep>
   <time name="dav">    0.05    0.05</time>
   <time name="total">    0.05    0.05</time>
   <energy>
    <i name="e_fr_energy">    -15.50811420 </i>
    <i name="e_wo_entrp">    -15.50811420 </i>
    <i name="e_0_energy">    -15.50811420 </i>
   </energy>
  </scstep>
  <scstep>
   <time name="dav">    0.03    0.03</time>
   <time name="total">    0.03    0.03</time>
   <energy>
    <i name="e_fr_energy">    -15.59470207 </i>
    <i name="e_wo_entrp">    -15.59470207 </i>
    <i name="e_0_energy">    -15.59470207 </i>
   </energy>
  </scstep>
  <scstep>
   <time name="dav">    0.05    0.05</time>
   <time name="total">    0.07    0.07</time>
   <energy>
    <i name="e_fr_energy">    -15.59537177 </i>
    <i name="e_wo_entrp">    -15.59537177 </i>
    <i name="e_0_energy">    -15.59537177 </i>
   </energy>
  </scstep>
  <scstep>
   <time name="dav">    0.04    0.04</time>
   <time name="total">    0.11    0.11</time>
   <energy>
    <i name="e_fr_energy">    -14.95847989 </i>
    <i name="e_wo_entrp">    -14.95847989 </i>
    <i name="e_0_energy">    -14.95847989 </i>
   </energy>
  </scstep>
  <scstep>
   <time name="dav">    0.04    0.04</time>
   <time name="total">    0.12    0.12</time>
   <energy>
    <i name="e_fr_energy">    -14.83042982 </i>
    <i name="e_wo_entrp">    -14.83042982 </i>
    <i name="e_0_energy">    -14.83042982 </i>
   </energy>
  </scstep>
  <scstep>
   <time name="dav">    0.03    0.03</time>
   <time name="total">    0.11    0.11</time>
   <energy>
    <i name="e_fr_energy">    -14.79335799 </i>
    <i name="e_wo_entrp">    -14.79335799 </i>
    <i name="e_0_energy">    -14.79335799 </i>
   </energy>
  </scstep>
  <scstep>
   <time name="dav">    0.04    0.04</time>
   <time name="total">    0.11    0.11</time>
   <energy>
    <i name="e_fr_energy">    -14.79255954 </i>
    <i name="e_wo_entrp">    -14.79255954 </i>
    <i name="e_0_energy">    -14.79255954 </i>
   </energy>
  </scstep>
  <scstep>
   <time name="dav">    0.03    0.03</time>
   <time name="total">    0.11    0.11</time>
   <energy>
    <i name="e_fr_energy">    -14.79347933 </i>
    <i name="e_wo_entrp">    -14.79347933 </i>
    <i name="e_0_energy">    -14.79347933 </i>
   </energy>
  </scstep>
  <scstep>
   <time name="dav">    0.04    0.04</time>
   <time name="total">    0.11    0.11</time>
   <energy>
    <i name="e_fr_energy">    -14.79569636 </i>
    <i name="e_wo_entrp">    -14.79569636 </i>
    <i name="e_0_energy">    -14.79569636 </i>
   </energy>
  </scstep>
  <scstep>
   <time name="dav">    0.04    0.04</time>
   <time name="total">    0.12    0.12</time>
   <energy>
    <i name="e_fr_energy">    -14.79631649 </i>
    <i name="e_wo_entrp">    -14.79631649 </i>
    <i name="e_0_energy">    -14.79631649 </i>
   </energy>
  </scstep>
  <scstep>
   <time name="dav">    0.03    0.03</time>
   <time name="total">    0.11    0.11</time>
   <energy>
    <i name="e_fr_energy">    -14.79716783 </i>
    <i name="e_wo_entrp">    -14.79716783 </i>
    <i name="e_0_energy">    -14.79716783 </i>
   </energy>
  </scstep>
  <scstep>
   <time name="dav">    0.04    0.04</time>
   <time name="total">    0.11    0.11</time>
   <energy>
    <i name="e_fr_energy">    -14.79730420 </i>
    <i name="e_wo_entrp">    -14.79730420 </i>
    <i name="e_0_energy">    -14.79730420 </i>
   </energy>
  </scstep>
  <scstep>
   <time name="dav">    0.03    0.03</time>
   <time name="total">    0.11    0.11</time>
   <energy>
    <i name="e_fr_energy">    -14.79739348 </i>
    <i name="e_wo_entrp">    -14.79739348 </i>
    <i name="e_0_energy">    -14.79739348 </i>
   </energy>
  </scstep>
  <scstep>
   <time name="dav">    0.04    0.04</time>
   <time name="total">    0.11    0.11</time>
   <energy>
    <i name="e_fr_energy">    -14.79740314 </i>
    <i name="e_wo_entrp">    -14.79740314 </i>
    <i name="e_0_energy">    -14.79740314 </i>
   </energy>
  </scstep>
  <scstep>
   <time name="dav">    0.03    0.03</time>
   <time name="total">    0.11    0.11</time>
   <energy>
    <i name="e_fr_energy">    -14.79740730 </i>
    <i name="e_wo_entrp">    -14.79740730 </i>
    <i name="e_0_energy">    -14.79740730 </i>
   </energy>
  </scstep>
  <scstep>
   <time name="dav">    0.03    0.03</time>
   <time name="total">    0.10    0.10</time>
   <energy>
    <i name="alphaZ">      0.85010715 </i>
    <i name="ewald">     48.90784304 </i>
    <i name="hartreedc">   -533.00669240 </i>
    <i name="XCdc">     41.06072010 </i>
    <i name="pawpsdc">    376.83132382 </i>
    <i name="pawaedc">   -379.93300495 </i>
    <i name="eentropy">     -0.00000000 </i>
    <i name="bandstr">   -148.89812491 </i>
    <i name="atom">    579.39041991 </i>
    <i name="e_fr_energy">    -14.79740824 </i>
    <i name="e_wo_entrp">    -14.79740824 </i>
    <i name="e_0_energy">    -14.79740824 </i>
   </energy>
  </scstep>
  <structure>
   <crystal>
    <varray name="basis" >
     <v>       8.00000000       0.00000000       0.00000000 </v>
     <v>       0.00000000       8.00000000       0.00000000 </v>
     <v>       0.00000000       0.00000000       8.00000000 </v>
    </varray>
    <i name="volume">    512.00000000 </i>
    <varray name="rec_basis" >
     <v>       0.12500000       0.00000000       0.00000000 </v>
     <v>       0.00000000       0.12500000       0.00000000 </v>
     <v>       0.00000000       0.00000000       0.12500000 </v>
    </varray>
   </crystal>
   <varray name="positions" >
    <v>       0.00000000       0.00000000       0.00000000 </v>
    <v>       0.00000000       0.00000000       0.14287500 </v>
   </varray>
  </structure>
  <varray name="forces" >
   <v>      -0.00000000       0.00000000      -0.06320755 </v>
   <v>       0.00000000      -0.00000000       0.06320755 </v>
  </varray>
  <varray name="stress" >
   <v>      -2.41214710      -0.00000000       0.00000000 </v>
   <v>       0.00000000      -2.41214710       0.00000000 </v>
   <v>       0.00000000       0.00000000      -2.11013420 </v>
  </varray>
  <energy>
   <i name="e_fr_energy">    -14.79740824 </i>
   <i name="e_wo_entrp">    -14.79740824 </i>
   <i name="e_0_energy">     -0.00000000 </i>
  </energy>
  <kpoints>
   <varray name="kpointlist" >
    <v>       0.00000000       0.00000000       0.00000000 </v>
   </varray>
   <varray name="weights" >
    <v>       1.00000000 </v>
   </varray>
  </kpoints>
  <time name="totalsc">    2.24    2.25</time>
 </calculation>
 <calculation>
  <scstep>
   <time name="dav">    0.03    0.03</time>
   <time name="total">    0.11    0.11</time>
   <energy>
    <i name="alphaZ">      0.85010715 </i>
    <i name="ewald">     54.22475701 </i>
    <i name="hartreedc">   -536.10948483 </i>
    <i name="XCdc">     41.15700491 </i>
    <i name="pawpsdc">    376.83105554 </i>
    <i name="pawaedc">   -379.93273297 </i>
    <i name="eentropy">     -0.00000000 </i>
    <i name="bandstr">   -151.18360875 </i>
    <i name="atom">    579.39041991 </i>
    <i name="e_fr_energy">    -14.77248202 </i>
    <i name="e_wo_entrp">    -14.77248202 </i>
    <i name="e_0_energy">    -14.77248202 </i>
   </energy>
  </scstep>
  <scstep>
   <time name="dav">    0.03    0.03</time>
   <time name="total">    0.11    0.11</time>
   <energy>
    <i name="e_fr_energy">    -14.77296000 </i>
    <i name="e_wo_entrp">    -14.77296000 </i>
    <i name="e_0_energy">    -14.77296000 </i>
   </energy>
  </scstep>
  <scstep>
   <time name="dav">    0.03    0.03</time>
   <time name="total">    0.11    0.11</time>
   <energy>
    <i name="e_fr_energy">    -14.77190308 </i>
    <i name="e_wo_entrp">    -14.77190308 </i>
    <i name="e_0_energy">    -14.77190308 </i>
   </energy>
  </scstep>
  <scstep>
   <time name="dav">    0.04    0.04</time>
   <time name="total">    0.11    0.11</time>
   <energy>
    <i name="e_fr_energy">    -14.77192288 </i>
    <i name="e_wo_entrp">    -14.77192288 </i>
    <i name="e_0_energy">    -14.77192288 </i>
   </energy>
  </scstep>
  <scstep>
   <time name="dav">    0.03    0.03</time>
   <time name="total">    0.11    0.11</time>
   <energy>
    <i name="e_fr_energy">    -14.77193978 </i>
    <i name="e_wo_entrp">    -14.77193978 </i>
    <i name="e_0_energy">    -14.77193978 </i>
   </energy>
  </scstep>
  <scstep>
   <time name="dav">    0.04    0.04</time>
   <time name="total">    0.12    0.12</time>
   <energy>
    <i name="e_fr_energy">    -14.77195436 </i>
    <i name="e_wo_entrp">    -14.77195436 </i>
    <i name="e_0_energy">    -14.77195436 </i>
   </energy>
  </scstep>
  <scstep>
   <time name="dav">    0.04    0.04</time>
   <time name="total">    0.12    0.12</time>
   <energy>
    <i name="e_fr_energy">    -14.77197858 </i>
    <i name="e_wo_entrp">    -14.77197858 </i>
    <i name="e_0_energy">    -14.77197858 </i>
   </energy>
  </scstep>
  <scstep>
   <time name="dav">    0.04    0.04</time>
   <time name="total">    0.12    0.12</time>
   <energy>
    <i name="e_fr_energy">    -14.77200204 </i>
    <i name="e_wo_entrp">    -14.77200204 </i>
    <i name="e_0_energy">    -14.77200204 </i>
   </energy>
  </scstep>
  <scstep>
   <time name="dav">    0.04    0.04</time>
   <time name="total">    0.12    0.12</time>
   <energy>
    <i name="e_fr_energy">    -14.77201600 </i>
    <i name="e_wo_entrp">    -14.77201600 </i>
    <i name="e_0_energy">    -14.77201600 </i>
   </energy>
  </scstep>
  <scstep>
   <time name="dav">    0.04    0.04</time>
   <time name="total">    0.11    0.11</time>
   <energy>
    <i name="e_fr_energy">    -14.77202072 </i>
    <i name="e_wo_entrp">    -14.77202072 </i>
    <i name="e_0_energy">    -14.77202072 </i>
   </energy>
  </scstep>
  <scstep>
   <time name="dav">    0.04    0.04</time>
   <time name="total">    0.12    0.12</time>
   <energy>
    <i name="e_fr_energy">    -14.77202309 </i>
    <i name="e_wo_entrp">    -14.77202309 </i>
    <i name="e_0_energy">    -14.77202309 </i>
   </energy>
  </scstep>
  <scstep>
   <time name="dav">    0.03    0.03</time>
   <time name="total">    0.10    0.10</time>
   <energy>
    <i name="alphaZ">      0.85010715 </i>
    <i name="ewald">     54.22475701 </i>
    <i name="hartreedc">   -537.23881041 </i>
    <i name="XCdc">     41.22052828 </i>
    <i name="pawpsdc">    383.60328199 </i>
    <i name="pawaedc">   -386.73794412 </i>
    <i name="eentropy">     -0.00000000 </i>
    <i name="bandstr">   -150.08436321 </i>
    <i name="atom">    579.39041991 </i>
    <i name="e_fr_energy">    -14.77202340 </i>
    <i name="e_wo_entrp">    -14.77202340 </i>
    <i name="e_0_energy">    -14.77202340 </i>
   </energy>
  </scstep>
  <structure>
   <crystal>
    <varray name="basis" >
     <v>       8.00000000       0.00000000       0.00000000 </v>
     <v>       0.00000000       8.00000000       0.00000000 </v>
     <v>       0.00000000       0.00000000       8.00000000 </v>
    </varray>
    <i name="volume">    512.00000000 </i>
    <varray name="rec_basis" >
     <v>       0.12500000       0.00000000       0.00000000 </v>
     <v>       0.00000000       0.12500000       0.00000000 </v>
     <v>       0.00000000       0.00000000       0.12500000 </v>
    </varray>
   </crystal>
   <varray name="positions" >
    <v>       0.00000000       0.00000000       0.00250000 </v>
    <v>       0.00000000       0.00000000       0.14287500 </v>
   </varray>
  </structure>
  <varray name="forces" >
   <v>       0.00000000       0.00000000      -2.52207723 </v>
   <v>      -0.00000000      -0.00000000       2.52207723 </v>
  </varray>
  <varray name="stress" >
   <v>      -2.40637807       0.00000000       0.00000000 </v>
   <v>      -0.00000000      -2.40637807       0.00000000 </v>
   <v>       0.00000000       0.00000000       6.48075059 </v>
  </varray>
  <energy>
   <i name="e_fr_energy">    -14.77202340 </i>
   <i name="e_wo_entrp">    -14.77202340 </i>
   <i name="e_0_energy">     -0.00000000 </i>
  </energy>
  <kpoints>
   <varray name="kpointlist" >
    <v>       0.00000000       0.00000000       0.00000000 </v>
   </varray>
   <varray name="weights" >
    <v>       1.00000000 </v>
   </varray>
  </kpoints>
  <time name="totalsc">    1.52    1.52</time>
 </calculation>
 <calculation>
  <scstep>
   <time name="dav">    0.04    0.04</time>
   <time name="total">    0.12    0.12</time>
   <energy>
    <i name="alphaZ">      0.85010715 </i>
    <i name="ewald">     43.77747250 </i>
    <i name="hartreedc">   -531.01718876 </i>
    <i name="XCdc">     41.02875100 </i>
    <i name="pawpsdc">    383.60314810 </i>
    <i name="pawaedc">   -386.73779455 </i>
    <i name="eentropy">     -0.00000000 </i>
    <i name="bandstr">   -145.67574964 </i>
    <i name="atom">    579.39041991 </i>
    <i name="e_fr_energy">    -14.78083430 </i>
    <i name="e_wo_entrp">    -14.78083430 </i>
    <i name="e_0_energy">    -14.78083430 </i>
   </energy>
  </scstep>
  <scstep>
   <time name="dav">    0.03    0.03</time>
   <time name="total">    0.10    0.10</time>
   <energy>
    <i name="e_fr_energy">    -14.77952834 </i>
    <i name="e_wo_entrp">    -14.77952834 </i>
    <i name="e_0_energy">    -14.77952834 </i>
   </energy>
  </scstep>
  <scstep>
   <time name="dav">    0.05    0.05</time>
   <time name="total">    0.12    0.13</time>
   <energy>
    <i name="e_fr_energy">    -14.77640634 </i>
    <i name="e_wo_entrp">    -14.77640634 </i>
    <i name="e_0_energy">    -14.77640634 </i>
   </energy>
  </scstep>
  <scstep>
   <time name="dav">    0.03    0.03</time>
   <time name="total">    0.10    0.10</time>
   <energy>
    <i name="e_fr_energy">    -14.77652186 </i>
    <i name="e_wo_entrp">    -14.77652186 </i>
    <i name="e_0_energy">    -14.77652186 </i>
   </energy>
  </scstep>
  <scstep>
   <time name="dav">    0.03    0.03</time>
   <time name="total">    0.11    0.11</time>
   <energy>
    <i name="e_fr_energy">    -14.77657664 </i>
    <i name="e_wo_entrp">    -14.77657664 </i>
    <i name="e_0_energy">    -14.77657664 </i>
   </energy>
  </scstep>
  <scstep>
   <time name="dav">    0.04    0.04</time>
   <time name="total">    0.11    0.11</time>
   <energy>
    <i name="e_fr_energy">    -14.77666280 </i>
    <i name="e_wo_entrp">    -14.77666280 </i>
    <i name="e_0_energy">    -14.77666280 </i>
   </energy>
  </scstep>
  <scstep>
   <time name="dav">    0.03    0.03</time>
   <time name="total">    0.11    0.11</time>
   <energy>
    <i name="e_fr_energy">    -14.77671873 </i>
    <i name="e_wo_entrp">    -14.77671873 </i>
    <i name="e_0_energy">    -14.77671873 </i>
   </energy>
  </scstep>
  <scstep>
   <time name="dav">    0.03    0.03</time>
   <time name="total">    0.11    0.11</time>
   <energy>
    <i name="e_fr_energy">    -14.77678056 </i>
    <i name="e_wo_entrp">    -14.77678056 </i>
    <i name="e_0_energy">    -14.77678056 </i>
   </energy>
  </scstep>
  <scstep>
   <time name="dav">    0.03    0.03</time>
   <time name="total">    0.11    0.11</time>
   <energy>
    <i name="e_fr_energy">    -14.77680186 </i>
    <i name="e_wo_entrp">    -14.77680186 </i>
    <i name="e_0_energy">    -14.77680186 </i>
   </energy>
  </scstep>
  <scstep>
   <time name="dav">    0.04    0.04</time>
   <time name="total">    0.11    0.11</time>
   <energy>
    <i name="e_fr_energy">    -14.77680882 </i>
    <i name="e_wo_entrp">    -14.77680882 </i>
    <i name="e_0_energy">    -14.77680882 </i>
   </energy>
  </scstep>
  <scstep>
   <time name="dav">    0.03    0.03</time>
   <time name="total">    0.11    0.11</time>
   <energy>
    <i name="e_fr_energy">    -14.77681454 </i>
    <i name="e_wo_entrp">    -14.77681454 </i>
    <i name="e_0_energy">    -14.77681454 </i>
   </energy>
  </scstep>
  <scstep>
   <time name="dav">    0.04    0.04</time>
   <time name="total">    0.10    0.10</time>
   <energy>
    <i name="alphaZ">      0.85010715 </i>
    <i name="ewald">     43.77747250 </i>
    <i name="hartreedc">   -528.88914619 </i>
    <i name="XCdc">     40.90674523 </i>
    <i name="pawpsdc">    370.47616400 </i>
    <i name="pawaedc">   -373.54802786 </i>
    <i name="eentropy">     -0.00000000 </i>
    <i name="bandstr">   -147.74054982 </i>
    <i name="atom">    579.39041991 </i>
    <i name="e_fr_energy">    -14.77681510 </i>
    <i name="e_wo_entrp">    -14.77681510 </i>
    <i name="e_0_energy">    -14.77681510 </i>
   </energy>
  </scstep>
  <structure>
   <crystal>
    <varray name="basis" >
     <v>       8.00000000       0.00000000       0.00000000 </v>
     <v>       0.00000000       8.00000000       0.00000000 </v>
     <v>       0.00000000       0.00000000       8.00000000 </v>
    </varray>
    <i name="volume">    512.00000000 </i>
    <varray name="rec_basis" >
     <v>       0.12500000       0.00000000       0.00000000 </v>
     <v>       0.00000000       0.12500000       0.00000000 </v>
     <v>       0.00000000       0.00000000       0.12500000 </v>
    </varray>
   </crystal>
   <varray name="positions" >
    <v>       0.00000000       0.00000000      -0.00250000 </v>
    <v>       0.00000000       0.00000000       0.14287500 </v>
   </varray>
  </structure>
  <varray name="forces" >
   <v>      -0.00000000      -0.00000000       2.06743102 </v>
   <v>       0.00000000       0.00000000      -2.06743102 </v>
  </varray>
  <varray name="stress" >
   <v>      -2.41642647       0.00000000      -0.00000000 </v>
   <v>       0.00000000      -2.41642647      -0.00000000 </v>
   <v>      -0.00000000       0.00000000      -9.80248268 </v>
  </varray>
  <energy>
   <i name="e_fr_energy">    -14.77681510 </i>
   <i name="e_wo_entrp">    -14.77681510 </i>
   <i name="e_0_energy">     -0.00000000 </i>
  </energy>
  <kpoints>
   <varray name="kpointlist" >
    <v>       0.00000000       0.00000000       0.00000000 </v>
   </varray>
   <varray name="weights" >
    <v>       1.00000000 </v>
   </varray>
  </kpoints>
  <time name="totalsc">    1.48    1.48</time>
 </calculation>
 <calculation>
  <scstep>
   <time name="dav">    0.03    0.03</time>
   <time name="total">    0.11    0.11</time>
   <energy>
    <i name="alphaZ">      0.85010715 </i>
    <i name="ewald">     43.77747250 </i>
    <i name="hartreedc">   -528.94070407 </i>
    <i name="XCdc">     40.91466619 </i>
    <i name="pawpsdc">    370.47633152 </i>
    <i name="pawaedc">   -373.54821949 </i>
    <i name="eentropy">     -0.00000000 </i>
    <i name="bandstr">   -147.69475656 </i>
    <i name="atom">    579.39041991 </i>
    <i name="e_fr_energy">    -14.77468286 </i>
    <i name="e_wo_entrp">    -14.77468286 </i>
    <i name="e_0_energy">    -14.77468286 </i>
   </energy>
  </scstep>
  <scstep>
   <time name="dav">    0.03    0.03</time>
   <time name="total">    0.11    0.11</time>
   <energy>
    <i name="e_fr_energy">    -14.77671870 </i>
    <i name="e_wo_entrp">    -14.77671870 </i>
    <i name="e_0_energy">    -14.77671870 </i>
   </energy>
  </scstep>
  <scstep>
   <time name="dav">    0.04    0.04</time>
   <time name="total">    0.11    0.11</time>
   <energy>
    <i name="e_fr_energy">    -14.77685747 </i>
    <i name="e_wo_entrp">    -14.77685747 </i>
    <i name="e_0_energy">    -14.77685747 </i>
   </energy>
  </scstep>
  <scstep>
   <time name="dav">    0.03    0.03</time>
   <time name="total">    0.11    0.11</time>
   <energy>
    <i name="e_fr_energy">    -14.77685469 </i>
    <i name="e_wo_entrp">    -14.77685469 </i>
    <i name="e_0_energy">    -14.77685469 </i>
   </energy>
  </scstep>
  <scstep>
   <time name="dav">    0.03    0.03</time>
   <time name="total">    0.11    0.11</time>
   <energy>
    <i name="e_fr_energy">    -14.77685362 </i>
    <i name="e_wo_entrp">    -14.77685362 </i>
    <i name="e_0_energy">    -14.77685362 </i>
   </energy>
  </scstep>
  <scstep>
   <time name="dav">    0.04    0.04</time>
   <time name="total">    0.10    0.10</time>
   <energy>
    <i name="alphaZ">      0.85010715 </i>
    <i name="ewald">     43.77747250 </i>
    <i name="hartreedc">   -528.88730669 </i>
    <i name="XCdc">     40.90668575 </i>
    <i name="pawpsdc">    370.46866005 </i>
    <i name="pawaedc">   -373.54048061 </i>
    <i name="eentropy">     -0.00000000 </i>
    <i name="bandstr">   -147.74241249 </i>
    <i name="atom">    579.39041991 </i>
    <i name="e_fr_energy">    -14.77685443 </i>
    <i name="e_wo_entrp">    -14.77685443 </i>
    <i name="e_0_energy">    -14.77685443 </i>
   </energy>
  </scstep>
  <structure>
   <crystal>
    <varray name="basis" >
     <v>       8.00000000       0.00000000       0.00000000 </v>
     <v>       0.00000000       8.00000000       0.00000000 </v>
     <v>       0.00000000       0.00000000       8.00000000 </v>
    </varray>
    <i name="volume">    512.00000000 </i>
    <varray name="rec_basis" >
     <v>       0.12500000       0.00000000       0.00000000 </v>
     <v>       0.00000000       0.12500000       0.00000000 </v>
     <v>       0.00000000       0.00000000       0.12500000 </v>
    </varray>
   </crystal>
   <varray name="positions" >
    <v>       0.00000000       0.00000000       0.00000000 </v>
    <v>       0.00000000       0.00000000       0.14537500 </v>
   </varray>
  </structure>
  <varray name="forces" >
   <v>      -0.00000000      -0.00000000       2.06216147 </v>
   <v>       0.00000000       0.00000000      -2.06216147 </v>
  </varray>
  <varray name="stress" >
   <v>      -2.41010271       0.00000000       0.00000000 </v>
   <v>      -0.00000000      -2.41010271       0.00000000 </v>
   <v>       0.00000000      -0.00000000      -9.78977622 </v>
  </varray>
  <energy>
   <i name="e_fr_energy">    -14.77685443 </i>
   <i name="e_wo_entrp">    -14.77685443 </i>
   <i name="e_0_energy">     -0.00000000 </i>
  </energy>
  <kpoints>
   <varray name="kpointlist" >
    <v>       0.00000000       0.00000000       0.00000000 </v>
   </varray>
   <varray name="weights" >
    <v>       1.00000000 </v>
   </varray>
  </kpoints>
  <time name="totalsc">    0.82    0.82</time>
 </calculation>
 <calculation>
  <scstep>
   <time name="dav">    0.03    0.03</time>
   <time name="total">    0.11    0.11</time>
   <energy>
    <i name="alphaZ">      0.85010715 </i>
    <i name="ewald">     54.22475701 </i>
    <i name="hartreedc">   -534.92054034 </i>
    <i name="XCdc">     41.07990689 </i>
    <i name="pawpsdc">    370.47258086 </i>
    <i name="pawaedc">   -373.54439915 </i>
    <i name="eentropy">     -0.00000000 </i>
    <i name="bandstr">   -152.33452826 </i>
    <i name="atom">    579.39041991 </i>
    <i name="e_fr_energy">    -14.78169594 </i>
    <i name="e_wo_entrp">    -14.78169594 </i>
    <i name="e_0_energy">    -14.78169594 </i>
   </energy>
  </scstep>
  <scstep>
   <time name="dav">    0.03    0.03</time>
   <time name="total">    0.11    0.11</time>
   <energy>
    <i name="e_fr_energy">    -14.77471751 </i>
    <i name="e_wo_entrp">    -14.77471751 </i>
    <i name="e_0_energy">    -14.77471751 </i>
   </energy>
  </scstep>
  <scstep>
   <time name="dav">    0.04    0.04</time>
   <time name="total">    0.11    0.11</time>
   <energy>
    <i name="e_fr_energy">    -14.77195711 </i>
    <i name="e_wo_entrp">    -14.77195711 </i>
    <i name="e_0_energy">    -14.77195711 </i>
   </energy>
  </scstep>
  <scstep>
   <time name="dav">    0.04    0.04</time>
   <time name="total">    0.12    0.12</time>
   <energy>
    <i name="e_fr_energy">    -14.77184179 </i>
    <i name="e_wo_entrp">    -14.77184179 </i>
    <i name="e_0_energy">    -14.77184179 </i>
   </energy>
  </scstep>
  <scstep>
   <time name="dav">    0.03    0.03</time>
   <time name="total">    0.11    0.11</time>
   <energy>
    <i name="e_fr_energy">    -14.77191275 </i>
    <i name="e_wo_entrp">    -14.77191275 </i>
    <i name="e_0_energy">    -14.77191275 </i>
   </energy>
  </scstep>
  <scstep>
   <time name="dav">    0.04    0.04</time>
   <time name="total">    0.11    0.11</time>
   <energy>
    <i name="e_fr_energy">    -14.77197713 </i>
    <i name="e_wo_entrp">    -14.77197713 </i>
    <i name="e_0_energy">    -14.77197713 </i>
   </energy>
  </scstep>
  <scstep>
   <time name="dav">    0.03    0.03</time>
   <time name="total">    0.11    0.11</time>
   <energy>
    <i name="e_fr_energy">    -14.77207896 </i>
    <i name="e_wo_entrp">    -14.77207896 </i>
    <i name="e_0_energy">    -14.77207896 </i>
   </energy>
  </scstep>
  <scstep>
   <time name="dav">    0.04    0.04</time>
   <time name="total">    0.11    0.11</time>
   <energy>
    <i name="e_fr_energy">    -14.77216173 </i>
    <i name="e_wo_entrp">    -14.77216173 </i>
    <i name="e_0_energy">    -14.77216173 </i>
   </energy>
  </scstep>
  <scstep>
   <time name="dav">    0.03    0.03</time>
   <time name="total">    0.11    0.12</time>
   <energy>
    <i name="e_fr_energy">    -14.77219809 </i>
    <i name="e_wo_entrp">    -14.77219809 </i>
    <i name="e_0_energy">    -14.77219809 </i>
   </energy>
  </scstep>
  <scstep>
   <time name="dav">    0.03    0.03</time>
   <time name="total">    0.11    0.11</time>
   <energy>
    <i name="e_fr_energy">    -14.77221583 </i>
    <i name="e_wo_entrp">    -14.77221583 </i>
    <i name="e_0_energy">    -14.77221583 </i>
   </energy>
  </scstep>
  <scstep>
   <time name="dav">    0.04    0.04</time>
   <time name="total">    0.12    0.12</time>
   <energy>
    <i name="e_fr_energy">    -14.77221964 </i>
    <i name="e_wo_entrp">    -14.77221964 </i>
    <i name="e_0_energy">    -14.77221964 </i>
   </energy>
  </scstep>
  <scstep>
   <time name="dav">    0.04    0.04</time>
   <time name="total">    0.10    0.10</time>
   <energy>
    <i name="alphaZ">      0.85010715 </i>
    <i name="ewald">     54.22475701 </i>
    <i name="hartreedc">   -537.23914908 </i>
    <i name="XCdc">     41.22052520 </i>
    <i name="pawpsdc">    383.60403307 </i>
    <i name="pawaedc">   -386.73875667 </i>
    <i name="eentropy">     -0.00000000 </i>
    <i name="bandstr">   -150.08415712 </i>
    <i name="atom">    579.39041991 </i>
    <i name="e_fr_energy">    -14.77222054 </i>
    <i name="e_wo_entrp">    -14.77222054 </i>
    <i name="e_0_energy">    -14.77222054 </i>
   </energy>
  </scstep>
  <structure>
   <crystal>
    <varray name="basis" >
     <v>       8.00000000       0.00000000       0.00000000 </v>
     <v>       0.00000000       8.00000000       0.00000000 </v>
     <v>       0.00000000       0.00000000       8.00000000 </v>
    </varray>
    <i name="volume">    512.00000000 </i>
    <varray name="rec_basis" >
     <v>       0.12500000       0.00000000       0.00000000 </v>
     <v>       0.00000000       0.12500000       0.00000000 </v>
     <v>       0.00000000       0.00000000       0.12500000 </v>
    </varray>
   </crystal>
   <varray name="positions" >
    <v>       0.00000000       0.00000000       0.00000000 </v>
    <v>       0.00000000       0.00000000       0.14037500 </v>
   </varray>
  </structure>
  <varray name="forces" >
   <v>      -0.00000000       0.00000000      -2.51615903 </v>
   <v>       0.00000000      -0.00000000       2.51615903 </v>
  </varray>
  <varray name="stress" >
   <v>      -2.40759282      -0.00000000       0.00000000 </v>
   <v>      -0.00000000      -2.40759282       0.00000000 </v>
   <v>       0.00000000       0.00000000       6.45690278 </v>
  </varray>
  <energy>
   <i name="e_fr_energy">    -14.77222054 </i>
   <i name="e_wo_entrp">    -14.77222054 </i>
   <i name="e_0_energy">     -0.00000000 </i>
  </energy>
  <dynmat>
   <varray name="hessian" >
    <v>      -7.17110664       8.26660013 </v>
    <v>       8.26660013      -9.52943239 </v>
   </varray>
   <v name="eigenvalues"> -1.67005451E+01  6.09363299E-06</v>
   <varray name="eigenvectors" >
    <v>  -6.55281447E-01  7.55384819E-01</v>
    <v>  -7.55384819E-01 -6.55281447E-01</v>
   </varray>
  </dynmat>
  <kpoints>
   <varray name="kpointlist" >
    <v>       0.00000000       0.00000000       0.00000000 </v>
   </varray>
   <varray name="weights" >
    <v>       1.00000000 </v>
   </varray>
  </kpoints>
  <time name="totalsc">    1.49    1.50</time>
  <eigenvalues>
   <array>
    <dimension dim="1">band</dimension>
    <dimension dim="2">kpoint</dimension>
    <dimension dim="3">spin</dimension>
    <field>eigene</field>
    <field>occ</field>
    <set>
     <set comment="spin 1">
      <set comment="kpoint 1">
       <r>  -29.2852    1.0000 </r>
       <r>  -13.7496    1.0000 </r>
       <r>  -11.6431    1.0000 </r>
       <r>  -11.6431    1.0000 </r>
       <r>   -8.7212    1.0000 </r>
       <r>   -1.6577    0.0000 </r>
       <r>   -1.6577    0.0000 </r>
       <r>   -0.2575    0.0000 </r>
       <r>    1.7022    0.0000 </r>
       <r>    1.8678    0.0000 </r>
       <r>    1.8678    0.0000 </r>
       <r>    1.8947    0.0000 </r>
      </set>
     </set>
    </set>
   </array>
  </eigenvalues>
  <separator name="orbital magnetization" >
   <v name="MAGDIPOLOUT">      0.00000000      0.00000000      0.00000000</v>
  </separator>
  <dos>
   <i name="efermi">     -7.71373118 </i>
   <total>
    <array>
     <dimension dim="1">gridpoints</dimension>
     <dimension dim="2">spin</dimension>
     <field>energy</field>
     <field>total</field>
     <field>integrated</field>
     <set>
      <set comment="spin 1">
       <r>   -31.2852     0.0000     0.0000 </r>
       <r>   -31.1679     0.0000     0.0000 </r>
       <r>   -31.0506     0.0000     0.0000 </r>
       <r>   -30.9334     0.0000     0.0000 </r>
       <r>   -30.8161     0.0000     0.0000 </r>
       <r>   -30.6988     0.0000     0.0000 </r>
       <r>   -30.5816     0.0000     0.0000 </r>
       <r>   -30.4643     0.0000     0.0000 </r>
       <r>   -30.3470     0.0000     0.0000 </r>
       <r>   -30.2298     0.0000     0.0000 </r>
       <r>   -30.1125     0.0000     0.0000 </r>
       <r>   -29.9952     0.0000     0.0000 </r>
       <r>   -29.8780     0.0002     0.0000 </r>
       <r>   -29.7607     0.0063     0.0008 </r>
       <r>   -29.6434     0.0898     0.0113 </r>
       <r>   -29.5262     0.6571     0.0883 </r>
       <r>   -29.4089     2.5006     0.3816 </r>
       <r>   -29.2916     4.9622     0.9635 </r>
       <r>   -29.1744     5.1433     1.5666 </r>
       <r>   -29.0571     2.7847     1.8932 </r>
       <r>   -28.9398     0.7864     1.9854 </r>
       <r>   -28.8226     0.1155     1.9989 </r>
       <r>   -28.7053     0.0088     2.0000 </r>
       <r>   -28.5880     0.0003     2.0000 </r>
       <r>   -28.4708     0.0000     2.0000 </r>
       <r>   -28.3535     0.0000     2.0000 </r>
       <r>   -28.2362     0.0000     2.0000 </r>
       <r>   -28.1190     0.0000     2.0000 </r>
       <r>   -28.0017     0.0000     2.0000 </r>
       <r>   -27.8844     0.0000     2.0000 </r>
       <r>   -27.7672     0.0000     2.0000 </r>
       <r>   -27.6499     0.0000     2.0000 </r>
       <r>   -27.5326     0.0000     2.0000 </r>
       <r>   -27.4154     0.0000     2.0000 </r>
       <r>   -27.2981     0.0000     2.0000 </r>
       <r>   -27.1808     0.0000     2.0000 </r>
       <r>   -27.0636     0.0000     2.0000 </r>
       <r>   -26.9463     0.0000     2.0000 </r>
       <r>   -26.8291     0.0000     2.0000 </r>
       <r>   -26.7118     0.0000     2.0000 </r>
       <r>   -26.5945     0.0000     2.0000 </r>
       <r>   -26.4773     0.0000     2.0000 </r>
       <r>   -26.3600     0.0000     2.0000 </r>
       <r>   -26.2427     0.0000     2.0000 </r>
       <r>   -26.1255     0.0000     2.0000 </r>
       <r>   -26.0082     0.0000     2.0000 </r>
       <r>   -25.8909     0.0000     2.0000 </r>
       <r>   -25.7737     0.0000     2.0000 </r>
       <r>   -25.6564     0.0000     2.0000 </r>
       <r>   -25.5391     0.0000     2.0000 </r>
       <r>   -25.4219     0.0000     2.0000 </r>
       <r>   -25.3046     0.0000     2.0000 </r>
       <r>   -25.1873     0.0000     2.0000 </r>
       <r>   -25.0701     0.0000     2.0000 </r>
       <r>   -24.9528     0.0000     2.0000 </r>
       <r>   -24.8355     0.0000     2.0000 </r>
       <r>   -24.7183     0.0000     2.0000 </r>
       <r>   -24.6010     0.0000     2.0000 </r>
       <r>   -24.4837     0.0000     2.0000 </r>
       <r>   -24.3665     0.0000     2.0000 </r>
       <r>   -24.2492     0.0000     2.0000 </r>
       <r>   -24.1319     0.0000     2.0000 </r>
       <r>   -24.0147     0.0000     2.0000 </r>
       <r>   -23.8974     0.0000     2.0000 </r>
       <r>   -23.7801     0.0000     2.0000 </r>
       <r>   -23.6629     0.0000     2.0000 </r>
       <r>   -23.5456     0.0000     2.0000 </r>
       <r>   -23.4283     0.0000     2.0000 </r>
       <r>   -23.3111     0.0000     2.0000 </r>
       <r>   -23.1938     0.0000     2.0000 </r>
       <r>   -23.0765     0.0000     2.0000 </r>
       <r>   -22.9593     0.0000     2.0000 </r>
       <r>   -22.8420     0.0000     2.0000 </r>
       <r>   -22.7247     0.0000     2.0000 </r>
       <r>   -22.6075     0.0000     2.0000 </r>
       <r>   -22.4902     0.0000     2.0000 </r>
       <r>   -22.3729     0.0000     2.0000 </r>
       <r>   -22.2557     0.0000     2.0000 </r>
       <r>   -22.1384     0.0000     2.0000 </r>
       <r>   -22.0211     0.0000     2.0000 </r>
       <r>   -21.9039     0.0000     2.0000 </r>
       <r>   -21.7866     0.0000     2.0000 </r>
       <r>   -21.6693     0.0000     2.0000 </r>
       <r>   -21.5521     0.0000     2.0000 </r>
       <r>   -21.4348     0.0000     2.0000 </r>
       <r>   -21.3175     0.0000     2.0000 </r>
       <r>   -21.2003     0.0000     2.0000 </r>
       <r>   -21.0830     0.0000     2.0000 </r>
       <r>   -20.9657     0.0000     2.0000 </r>
       <r>   -20.8485     0.0000     2.0000 </r>
       <r>   -20.7312     0.0000     2.0000 </r>
       <r>   -20.6139     0.0000     2.0000 </r>
       <r>   -20.4967     0.0000     2.0000 </r>
       <r>   -20.3794     0.0000     2.0000 </r>
       <r>   -20.2621     0.0000     2.0000 </r>
       <r>   -20.1449     0.0000     2.0000 </r>
       <r>   -20.0276     0.0000     2.0000 </r>
       <r>   -19.9103     0.0000     2.0000 </r>
       <r>   -19.7931     0.0000     2.0000 </r>
       <r>   -19.6758     0.0000     2.0000 </r>
       <r>   -19.5585     0.0000     2.0000 </r>
       <r>   -19.4413     0.0000     2.0000 </r>
       <r>   -19.3240     0.0000     2.0000 </r>
       <r>   -19.2067     0.0000     2.0000 </r>
       <r>   -19.0895     0.0000     2.0000 </r>
       <r>   -18.9722     0.0000     2.0000 </r>
       <r>   -18.8549     0.0000     2.0000 </r>
       <r>   -18.7377     0.0000     2.0000 </r>
       <r>   -18.6204     0.0000     2.0000 </r>
       <r>   -18.5031     0.0000     2.0000 </r>
       <r>   -18.3859     0.0000     2.0000 </r>
       <r>   -18.2686     0.0000     2.0000 </r>
       <r>   -18.1513     0.0000     2.0000 </r>
       <r>   -18.0341     0.0000     2.0000 </r>
       <r>   -17.9168     0.0000     2.0000 </r>
       <r>   -17.7995     0.0000     2.0000 </r>
       <r>   -17.6823     0.0000     2.0000 </r>
       <r>   -17.5650     0.0000     2.0000 </r>
       <r>   -17.4477     0.0000     2.0000 </r>
       <r>   -17.3305     0.0000     2.0000 </r>
       <r>   -17.2132     0.0000     2.0000 </r>
       <r>   -17.0959     0.0000     2.0000 </r>
       <r>   -16.9787     0.0000     2.0000 </r>
       <r>   -16.8614     0.0000     2.0000 </r>
       <r>   -16.7442     0.0000     2.0000 </r>
       <r>   -16.6269     0.0000     2.0000 </r>
       <r>   -16.5096     0.0000     2.0000 </r>
       <r>   -16.3924     0.0000     2.0000 </r>
       <r>   -16.2751     0.0000     2.0000 </r>
       <r>   -16.1578     0.0000     2.0000 </r>
       <r>   -16.0406     0.0000     2.0000 </r>
       <r>   -15.9233     0.0000     2.0000 </r>
       <r>   -15.8060     0.0000     2.0000 </r>
       <r>   -15.6888     0.0000     2.0000 </r>
       <r>   -15.5715     0.0000     2.0000 </r>
       <r>   -15.4542     0.0000     2.0000 </r>
       <r>   -15.3370     0.0000     2.0000 </r>
       <r>   -15.2197     0.0000     2.0000 </r>
       <r>   -15.1024     0.0000     2.0000 </r>
       <r>   -14.9852     0.0000     2.0000 </r>
       <r>   -14.8679     0.0000     2.0000 </r>
       <r>   -14.7506     0.0000     2.0000 </r>
       <r>   -14.6334     0.0000     2.0000 </r>
       <r>   -14.5161     0.0000     2.0000 </r>
       <r>   -14.3988     0.0000     2.0000 </r>
       <r>   -14.2816     0.0014     2.0002 </r>
       <r>   -14.1643     0.0272     2.0034 </r>
       <r>   -14.0470     0.2735     2.0354 </r>
       <r>   -13.9298     1.4254     2.2026 </r>
       <r>   -13.8125     3.8691     2.6563 </r>
       <r>   -13.6952     5.4819     3.2991 </r>
       <r>   -13.5780     4.0580     3.7750 </r>
       <r>   -13.4607     1.5682     3.9589 </r>
       <r>   -13.3434     0.3156     3.9959 </r>
       <r>   -13.2262     0.0330     3.9998 </r>
       <r>   -13.1089     0.0018     4.0000 </r>
       <r>   -12.9916     0.0000     4.0000 </r>
       <r>   -12.8744     0.0000     4.0000 </r>
       <r>   -12.7571     0.0000     4.0000 </r>
       <r>   -12.6398     0.0000     4.0000 </r>
       <r>   -12.5226     0.0000     4.0000 </r>
       <r>   -12.4053     0.0000     4.0000 </r>
       <r>   -12.2880     0.0001     4.0000 </r>
       <r>   -12.1708     0.0032     4.0004 </r>
       <r>   -12.0535     0.0600     4.0074 </r>
       <r>   -11.9362     0.5880     4.0764 </r>
       <r>   -11.8190     2.9919     4.4272 </r>
       <r>   -11.7017     7.9288     5.3570 </r>
       <r>   -11.5844    10.9687     6.6432 </r>
       <r>   -11.4672     7.9278     7.5729 </r>
       <r>   -11.3499     2.9912     7.9237 </r>
       <r>   -11.2326     0.5877     7.9926 </r>
       <r>   -11.1154     0.0599     7.9996 </r>
       <r>   -10.9981     0.0032     8.0000 </r>
       <r>   -10.8808     0.0001     8.0000 </r>
       <r>   -10.7636     0.0000     8.0000 </r>
       <r>   -10.6463     0.0000     8.0000 </r>
       <r>   -10.5290     0.0000     8.0000 </r>
       <r>   -10.4118     0.0000     8.0000 </r>
       <r>   -10.2945     0.0000     8.0000 </r>
       <r>   -10.1772     0.0000     8.0000 </r>
       <r>   -10.0600     0.0000     8.0000 </r>
       <r>    -9.9427     0.0000     8.0000 </r>
       <r>    -9.8254     0.0000     8.0000 </r>
       <r>    -9.7082     0.0000     8.0000 </r>
       <r>    -9.5909     0.0000     8.0000 </r>
       <r>    -9.4736     0.0000     8.0000 </r>
       <r>    -9.3564     0.0001     8.0000 </r>
       <r>    -9.2391     0.0021     8.0003 </r>
       <r>    -9.1218     0.0372     8.0046 </r>
       <r>    -9.0046     0.3452     8.0451 </r>
       <r>    -8.8873     1.6634     8.2402 </r>
       <r>    -8.7700     4.1754     8.7298 </r>
       <r>    -8.6528     5.4720     9.3715 </r>
       <r>    -8.5355     3.7466     9.8108 </r>
       <r>    -8.4182     1.3389     9.9678 </r>
       <r>    -8.3010     0.2491     9.9970 </r>
       <r>    -8.1837     0.0241     9.9999 </r>
       <r>    -8.0664     0.0012    10.0000 </r>
       <r>    -7.9492     0.0000    10.0000 </r>
       <r>    -7.8319     0.0000    10.0000 </r>
       <r>    -7.7146     0.0000    10.0000 </r>
       <r>    -7.5974     0.0000    10.0000 </r>
       <r>    -7.4801     0.0000    10.0000 </r>
       <r>    -7.3628     0.0000    10.0000 </r>
       <r>    -7.2456     0.0000    10.0000 </r>
       <r>    -7.1283     0.0000    10.0000 </r>
       <r>    -7.0110     0.0000    10.0000 </r>
       <r>    -6.8938     0.0000    10.0000 </r>
       <r>    -6.7765     0.0000    10.0000 </r>
       <r>    -6.6593     0.0000    10.0000 </r>
       <r>    -6.5420     0.0000    10.0000 </r>
       <r>    -6.4247     0.0000    10.0000 </r>
       <r>    -6.3075     0.0000    10.0000 </r>
       <r>    -6.1902     0.0000    10.0000 </r>
       <r>    -6.0729     0.0000    10.0000 </r>
       <r>    -5.9557     0.0000    10.0000 </r>
       <r>    -5.8384     0.0000    10.0000 </r>
       <r>    -5.7211     0.0000    10.0000 </r>
       <r>    -5.6039     0.0000    10.0000 </r>
       <r>    -5.4866     0.0000    10.0000 </r>
       <r>    -5.3693     0.0000    10.0000 </r>
       <r>    -5.2521     0.0000    10.0000 </r>
       <r>    -5.1348     0.0000    10.0000 </r>
       <r>    -5.0175     0.0000    10.0000 </r>
       <r>    -4.9003     0.0000    10.0000 </r>
       <r>    -4.7830     0.0000    10.0000 </r>
       <r>    -4.6657     0.0000    10.0000 </r>
       <r>    -4.5485     0.0000    10.0000 </r>
       <r>    -4.4312     0.0000    10.0000 </r>
       <r>    -4.3139     0.0000    10.0000 </r>
       <r>    -4.1967     0.0000    10.0000 </r>
       <r>    -4.0794     0.0000    10.0000 </r>
       <r>    -3.9621     0.0000    10.0000 </r>
       <r>    -3.8449     0.0000    10.0000 </r>
       <r>    -3.7276     0.0000    10.0000 </r>
       <r>    -3.6103     0.0000    10.0000 </r>
       <r>    -3.4931     0.0000    10.0000 </r>
       <r>    -3.3758     0.0000    10.0000 </r>
       <r>    -3.2585     0.0000    10.0000 </r>
       <r>    -3.1413     0.0000    10.0000 </r>
       <r>    -3.0240     0.0000    10.0000 </r>
       <r>    -2.9067     0.0000    10.0000 </r>
       <r>    -2.7895     0.0000    10.0000 </r>
       <r>    -2.6722     0.0000    10.0000 </r>
       <r>    -2.5549     0.0000    10.0000 </r>
       <r>    -2.4377     0.0000    10.0000 </r>
       <r>    -2.3204     0.0000    10.0000 </r>
       <r>    -2.2031     0.0019    10.0002 </r>
       <r>    -2.0859     0.0401    10.0049 </r>
       <r>    -1.9686     0.4340    10.0558 </r>
       <r>    -1.8513     2.4388    10.3418 </r>
       <r>    -1.7341     7.1329    11.1783 </r>
       <r>    -1.6168    10.8875    12.4550 </r>
       <r>    -1.4995     8.6822    13.4731 </r>
       <r>    -1.3823     3.6151    13.8970 </r>
       <r>    -1.2650     0.7843    13.9890 </r>
       <r>    -1.1477     0.0884    13.9994 </r>
       <r>    -1.0305     0.0051    14.0000 </r>
       <r>    -0.9132     0.0002    14.0000 </r>
       <r>    -0.7959     0.0012    14.0001 </r>
       <r>    -0.6787     0.0235    14.0029 </r>
       <r>    -0.5614     0.2450    14.0316 </r>
       <r>    -0.4441     1.3237    14.1869 </r>
       <r>    -0.3269     3.7244    14.6236 </r>
       <r>    -0.2096     5.4694    15.2650 </r>
       <r>    -0.0923     4.1962    15.7570 </r>
       <r>     0.0249     1.6809    15.9542 </r>
       <r>     0.1422     0.3507    15.9953 </r>
       <r>     0.2595     0.0380    15.9997 </r>
       <r>     0.3767     0.0021    16.0000 </r>
       <r>     0.4940     0.0001    16.0000 </r>
       <r>     0.6113     0.0000    16.0000 </r>
       <r>     0.7285     0.0000    16.0000 </r>
       <r>     0.8458     0.0000    16.0000 </r>
       <r>     0.9631     0.0000    16.0000 </r>
       <r>     1.0803     0.0001    16.0000 </r>
       <r>     1.1976     0.0030    16.0004 </r>
       <r>     1.3149     0.0514    16.0064 </r>
       <r>     1.4321     0.4687    16.0614 </r>
       <r>     1.5494     2.4032    16.3432 </r>
       <r>     1.6667     7.4612    17.2181 </r>
       <r>     1.7839    14.9909    18.9760 </r>
       <r>     1.9012    19.3931    21.2502 </r>
       <r>     2.0185    15.0879    23.0195 </r>
       <r>     2.1357     6.5973    23.7931 </r>
       <r>     2.2530     1.5568    23.9757 </r>
       <r>     2.3703     0.1942    23.9985 </r>
       <r>     2.4875     0.0127    23.9999 </r>
       <r>     2.6048     0.0004    24.0000 </r>
       <r>     2.7221     0.0000    24.0000 </r>
       <r>     2.8393     0.0000    24.0000 </r>
       <r>     2.9566     0.0000    24.0000 </r>
       <r>     3.0739     0.0000    24.0000 </r>
       <r>     3.1911     0.0000    24.0000 </r>
       <r>     3.3084     0.0000    24.0000 </r>
       <r>     3.4256     0.0000    24.0000 </r>
       <r>     3.5429     0.0000    24.0000 </r>
       <r>     3.6602     0.0000    24.0000 </r>
       <r>     3.7774     0.0000    24.0000 </r>
       <r>     3.8947     0.0000    24.0000 </r>
      </set>
     </set>
    </array>
   </total>
  </dos>
 </calculation>
 <structure name="finalpos" >
  <crystal>
   <varray name="basis" >
    <v>       8.00000000       0.00000000       0.00000000 </v>
    <v>       0.00000000       8.00000000       0.00000000 </v>
    <v>       0.00000000       0.00000000       8.00000000 </v>
   </varray>
   <i name="volume">    512.00000000 </i>
   <varray name="rec_basis" >
    <v>       0.12500000       0.00000000       0.00000000 </v>
    <v>       0.00000000       0.12500000       0.00000000 </v>
    <v>       0.00000000       0.00000000       0.12500000 </v>
   </varray>
  </crystal>
  <varray name="positions" >
   <v>       0.00000000       0.00000000       0.00000000 </v>
   <v>       0.00000000       0.00000000       0.14037500 </v>
  </varray>
  <varray name="selective"  type="logical" >
   <v type="logical" >  F  F  T </v>
   <v type="logical" >  F  F  T </v>
  </varray>
  <nose>
   <v>      -3.00000000       0.00000000       0.00010000       0.00010000 </v>
  </nose>
 </structure>
</modeling>
