unknown system                          
   1.0000000000000000     
     5.499742    0.000000    0.000000
     0.000000    5.499742    0.000000
     0.000000    0.000000   18.000000
   Pd   Mo
     8     1
Direct
  0.250000  0.250000  0.432579
  0.750000  0.250000  0.432579
  0.250000  0.750000  0.432579
  0.750000  0.750000  0.432579
  0.000000  0.000000  0.540604
  0.500000  0.000000  0.540604
  0.000000  0.500000  0.540604
  0.500000  0.500000  0.540604
  0.000000  0.000000  0.607270

   48   48  140
 -.48868     -.46060     -.38449     -.28127     -.17626     -.89960E-01 -.32348E-01 -.24938E-02 0.75399E-02 0.73637E-02
 0.42594E-02 0.18004E-02 0.71607E-03 0.60033E-03 0.10023E-02 0.11498E-02 -.13621E-02 -.11672E-01 -.37077E-01 -.84107E-01
 -.15408     -.23952     -.32396     -.38651     -.40965     -.38651     -.32396     -.23952     -.15408     -.84107E-01
 -.37077E-01 -.11672E-01 -.13621E-02 0.11498E-02 0.10023E-02 0.60033E-03 0.71607E-03 0.18004E-02 0.42594E-02 0.73637E-02
 0.75399E-02 -.24938E-02 -.32348E-01 -.89960E-01 -.17626     -.28127     -.38449     -.46060     -.46060     -.43390    
 -.36155     -.26361     -.16424     -.82936E-01 -.29025E-01 -.14218E-02 0.75759E-02 0.71525E-02 0.41659E-02 0.18896E-02
 0.90586E-03 0.78335E-03 0.11260E-02 0.12823E-02 -.94680E-03 -.10391E-01 -.33985E-01 -.77986E-01 -.14375     -.22428    
 -.30402     -.36316     -.38505     -.36316     -.30402     -.22428     -.14375     -.77986E-01 -.33985E-01 -.10391E-01
 -.94680E-03 0.12823E-02 0.11260E-02 0.78335E-03 0.90586E-03 0.18896E-02 0.41659E-02 0.71525E-02 0.75759E-02 -.14218E-02
 -.29025E-01 -.82936E-01 -.16424     -.26361     -.36155     -.43390     -.38449     -.36155     -.29956     -.21608    
 -.13210     -.64294E-01 -.20273E-01 0.14175E-02 0.77796E-02 0.67901E-02 0.41478E-02 0.23430E-02 0.16067E-02 0.14684E-02
 0.16694E-02 0.18446E-02 0.31787E-03 -.69064E-02 -.25745E-01 -.61680E-01 -.11613     -.18338     -.25038     -.30026    
 -.31875     -.30026     -.25038     -.18338     -.11613     -.61680E-01 -.25745E-01 -.69064E-02 0.31787E-03 0.18446E-02
 0.16694E-02 0.14684E-02 0.16067E-02 0.23430E-02 0.41478E-02 0.67901E-02 0.77796E-02 0.14175E-02 -.20273E-01 -.64294E-01
 -.13210     -.21608     -.29956     -.36155     -.28127     -.26361     -.21608     -.15263     -.89747E-01 -.40129E-01
 -.91228E-02 0.50592E-02 0.82657E-02 0.67040E-02 0.44951E-02 0.31806E-02 0.26703E-02 0.25311E-02 0.26539E-02 0.29320E-02
 0.22781E-02 -.22012E-02 -.14975E-01 -.40361E-01 -.79741E-01 -.12913     -.17882     -.21605     -.22989     -.21605    
 -.17882     -.12913     -.79741E-01 -.40361E-01 -.14975E-01 -.22012E-02 0.22781E-02 0.29320E-02 0.26539E-02 0.25311E-02
 0.26703E-02 0.31806E-02 0.44951E-02 0.67040E-02 0.82657E-02 0.50592E-02 -.91228E-02 -.40129E-01 -.89747E-01 -.15263    
 -.21608     -.26361     -.17626     -.16424     -.13210     -.89747E-01 -.48655E-01 -.17347E-01 0.10369E-02 0.82868E-02
 0.87213E-02 0.65543E-02 0.43694E-02 0.30271E-02 0.24422E-02 0.23969E-02 0.28527E-02 0.36919E-02 0.41452E-02 0.23147E-02
 -.47295E-02 -.19929E-01 -.44429E-01 -.75854E-01 -.10792     -.13213     -.14117     -.13213     -.10792     -.75854E-01
 -.44429E-01 -.19929E-01 -.47295E-02 0.23147E-02 0.41452E-02 0.36919E-02 0.28527E-02 0.23969E-02 0.24422E-02 0.30271E-02
 0.43694E-02 0.65543E-02 0.87213E-02 0.82868E-02 0.10369E-02 -.17347E-01 -.48655E-01 -.89747E-01 -.13210     -.16424    
 -.89960E-01 -.82936E-01 -.64294E-01 -.40129E-01 -.17347E-01 -.85228E-03 0.77887E-02 0.98556E-02 0.79212E-02 0.43873E-02
 0.83674E-03 -.18480E-02 -.31520E-02 -.28260E-02 -.10123E-02 0.16630E-02 0.41398E-02 0.50032E-02 0.25794E-02 -.46942E-02
 -.17431E-01 -.34330E-01 -.51868E-01 -.65234E-01 -.70242E-01 -.65234E-01 -.51868E-01 -.34330E-01 -.17431E-01 -.46942E-02
 0.25794E-02 0.50032E-02 0.41398E-02 0.16630E-02 -.10123E-02 -.28260E-02 -.31520E-02 -.18480E-02 0.83674E-03 0.43873E-02
 0.79212E-02 0.98556E-02 0.77887E-02 -.85228E-03 -.17347E-01 -.40129E-01 -.64294E-01 -.82936E-01 -.32348E-01 -.29025E-01
 -.20273E-01 -.91228E-02 0.10369E-02 0.77887E-02 0.10202E-01 0.85259E-02 0.36102E-02 -.33923E-02 -.10959E-01 -.17168E-01
 -.20145E-01 -.18899E-01 -.13930E-01 -.70318E-02 -.41877E-03 0.41424E-02 0.56410E-02 0.37108E-02 -.14229E-02 -.87743E-02
 -.16532E-01 -.22456E-01 -.24673E-01 -.22456E-01 -.16532E-01 -.87743E-02 -.14229E-02 0.37108E-02 0.56410E-02 0.41424E-02
 -.41877E-03 -.70318E-02 -.13930E-01 -.18899E-01 -.20145E-01 -.17168E-01 -.10959E-01 -.33923E-02 0.36102E-02 0.85259E-02
 0.10202E-01 0.77887E-02 0.10369E-02 -.91228E-02 -.20273E-01 -.29025E-01 -.24938E-02 -.14218E-02 0.14175E-02 0.50592E-02
 0.82868E-02 0.98556E-02 0.85259E-02 0.31557E-02 -.68472E-02 -.20755E-01 -.35978E-01 -.48461E-01 -.54211E-01 -.51261E-01
 -.40750E-01 -.26340E-01 -.12333E-01 -.18133E-02 0.41191E-02 0.59727E-02 0.50325E-02 0.27054E-02 0.19146E-03 -.16461E-02
 -.23111E-02 -.16461E-02 0.19146E-03 0.27054E-02 0.50325E-02 0.59727E-02 0.41191E-02 -.18133E-02 -.12333E-01 -.26340E-01
 -.40750E-01 -.51261E-01 -.54211E-01 -.48461E-01 -.35978E-01 -.20755E-01 -.68472E-02 0.31557E-02 0.85259E-02 0.98556E-02
 0.82868E-02 0.50592E-02 0.14175E-02 -.14218E-02 0.75399E-02 0.75759E-02 0.77796E-02 0.82657E-02 0.87213E-02 0.79212E-02
 0.36102E-02 -.68472E-02 -.25011E-01 -.49704E-01 -.76261E-01 -.97611E-01 -.10710     -.10164     -.83253E-01 -.57999E-01
 -.33033E-01 -.13596E-01 -.15940E-02 0.39571E-02 0.54537E-02 0.52409E-02 0.47836E-02 0.45715E-02 0.45347E-02 0.45715E-02
 0.47836E-02 0.52409E-02 0.54537E-02 0.39571E-02 -.15940E-02 -.13596E-01 -.33033E-01 -.57999E-01 -.83253E-01 -.10164    
 -.10710     -.97611E-01 -.76261E-01 -.49704E-01 -.25011E-01 -.68472E-02 0.36102E-02 0.79212E-02 0.87213E-02 0.82657E-02
 0.77796E-02 0.75759E-02 0.73637E-02 0.71525E-02 0.67901E-02 0.67040E-02 0.65543E-02 0.43873E-02 -.33923E-02 -.20755E-01
 -.49704E-01 -.87947E-01 -.12815     -.15986     -.17359     -.16513     -.13746     -.99276E-01 -.60902E-01 -.30195E-01
 -.10358E-01 -.31501E-03 0.33075E-02 0.39923E-02 0.39785E-02 0.40438E-02 0.41127E-02 0.40438E-02 0.39785E-02 0.39923E-02
 0.33075E-02 -.31501E-03 -.10358E-01 -.30195E-01 -.60902E-01 -.99276E-01 -.13746     -.16513     -.17359     -.15986    
 -.12815     -.87947E-01 -.49704E-01 -.20755E-01 -.33923E-02 0.43873E-02 0.65543E-02 0.67040E-02 0.67901E-02 0.71525E-02
 0.42594E-02 0.41659E-02 0.41478E-02 0.44951E-02 0.43694E-02 0.83674E-03 -.10959E-01 -.35978E-01 -.76261E-01 -.12815    
 -.18170     -.22334     -.24107     -.22969     -.19308     -.14228     -.90568E-01 -.48312E-01 -.20130E-01 -.51118E-02
 0.83554E-03 0.22255E-02 0.21855E-02 0.20574E-02 0.20367E-02 0.20574E-02 0.21855E-02 0.22255E-02 0.83554E-03 -.51118E-02
 -.20130E-01 -.48312E-01 -.90568E-01 -.14228     -.19308     -.22969     -.24107     -.22334     -.18170     -.12815    
 -.76261E-01 -.35978E-01 -.10959E-01 0.83674E-03 0.43694E-02 0.44951E-02 0.41478E-02 0.41659E-02 0.18004E-02 0.18896E-02
 0.23430E-02 0.31806E-02 0.30271E-02 -.18480E-02 -.17168E-01 -.48461E-01 -.97611E-01 -.15986     -.22334     -.27227    
 -.29292     -.27941     -.23621     -.17602     -.11421     -.63021E-01 -.28182E-01 -.90066E-02 -.97515E-03 0.11282E-02
 0.11028E-02 0.78784E-03 0.67258E-03 0.78784E-03 0.11028E-02 0.11282E-02 -.97515E-03 -.90066E-02 -.28182E-01 -.63021E-01
 -.11421     -.17602     -.23621     -.27941     -.29292     -.27227     -.22334     -.15986     -.97611E-01 -.48461E-01
 -.17168E-01 -.18480E-02 0.30271E-02 0.31806E-02 0.23430E-02 0.18896E-02 0.71607E-03 0.90586E-03 0.16067E-02 0.26703E-02
 0.24422E-02 -.31520E-02 -.20145E-01 -.54211E-01 -.10710     -.17359     -.24107     -.29292     -.31477     -.30045    
 -.25464     -.19064     -.12466     -.69699E-01 -.31964E-01 -.10890E-01 -.18140E-02 0.73852E-03 0.81762E-03 0.46795E-03
 0.32315E-03 0.46795E-03 0.81762E-03 0.73852E-03 -.18140E-02 -.10890E-01 -.31964E-01 -.69699E-01 -.12466     -.19064    
 -.25464     -.30045     -.31477     -.29292     -.24107     -.17359     -.10710     -.54211E-01 -.20145E-01 -.31520E-02
 0.24422E-02 0.26703E-02 0.16067E-02 0.90586E-03 0.60033E-03 0.78335E-03 0.14684E-02 0.25311E-02 0.23969E-02 -.28260E-02
 -.18899E-01 -.51261E-01 -.10164     -.16513     -.22969     -.27941     -.30045     -.28684     -.24305     -.18182    
 -.11871     -.66204E-01 -.30227E-01 -.10182E-01 -.15331E-02 0.97223E-03 0.11567E-02 0.91056E-03 0.80412E-03 0.91056E-03
 0.11567E-02 0.97223E-03 -.15331E-02 -.10182E-01 -.30227E-01 -.66204E-01 -.11871     -.18182     -.24305     -.28684    
 -.30045     -.27941     -.22969     -.16513     -.10164     -.51261E-01 -.18899E-01 -.28260E-02 0.23969E-02 0.25311E-02
 0.14684E-02 0.78335E-03 0.10023E-02 0.11260E-02 0.16694E-02 0.26539E-02 0.28527E-02 -.10123E-02 -.13930E-01 -.40750E-01
 -.83253E-01 -.13746     -.19308     -.23621     -.25464     -.24305     -.20533     -.15264     -.98559E-01 -.53889E-01
 -.23634E-01 -.70535E-02 -.33090E-04 0.20126E-02 0.22773E-02 0.22188E-02 0.21942E-02 0.22188E-02 0.22773E-02 0.20126E-02
 -.33090E-04 -.70535E-02 -.23634E-01 -.53889E-01 -.98559E-01 -.15264     -.20533     -.24305     -.25464     -.23621    
 -.19308     -.13746     -.83253E-01 -.40750E-01 -.13930E-01 -.10123E-02 0.28527E-02 0.26539E-02 0.16694E-02 0.11260E-02
 0.11498E-02 0.12823E-02 0.18446E-02 0.29320E-02 0.36919E-02 0.16630E-02 -.70318E-02 -.26340E-01 -.57999E-01 -.99276E-01
 -.14228     -.17602     -.19064     -.18182     -.15264     -.11199     -.70586E-01 -.36817E-01 -.14371E-01 -.24004E-02
 0.24852E-02 0.38731E-02 0.41195E-02 0.41834E-02 0.42152E-02 0.41834E-02 0.41195E-02 0.38731E-02 0.24852E-02 -.24004E-02
 -.14371E-01 -.36817E-01 -.70586E-01 -.11199     -.15264     -.18182     -.19064     -.17602     -.14228     -.99276E-01
 -.57999E-01 -.26340E-01 -.70318E-02 0.16630E-02 0.36919E-02 0.29320E-02 0.18446E-02 0.12823E-02 -.13621E-02 -.94680E-03
 0.31787E-03 0.22781E-02 0.41452E-02 0.41398E-02 -.41877E-03 -.12333E-01 -.33033E-01 -.60902E-01 -.90568E-01 -.11421    
 -.12466     -.11871     -.98559E-01 -.70586E-01 -.42393E-01 -.19766E-01 -.50902E-02 0.23852E-02 0.50714E-02 0.54325E-02
 0.50880E-02 0.47583E-02 0.46404E-02 0.47583E-02 0.50880E-02 0.54325E-02 0.50714E-02 0.23852E-02 -.50902E-02 -.19766E-01
 -.42393E-01 -.70586E-01 -.98559E-01 -.11871     -.12466     -.11421     -.90568E-01 -.60902E-01 -.33033E-01 -.12333E-01
 -.41877E-03 0.41398E-02 0.41452E-02 0.22781E-02 0.31787E-03 -.94680E-03 -.11672E-01 -.10391E-01 -.69064E-02 -.22012E-02
 0.23147E-02 0.50032E-02 0.41424E-02 -.18133E-02 -.13596E-01 -.30195E-01 -.48312E-01 -.63021E-01 -.69699E-01 -.66204E-01
 -.53889E-01 -.36817E-01 -.19766E-01 -.63124E-02 0.20375E-02 0.55852E-02 0.56040E-02 0.36004E-02 0.95749E-03 -.11736E-02
 -.19837E-02 -.11736E-02 0.95749E-03 0.36004E-02 0.56040E-02 0.55852E-02 0.20375E-02 -.63124E-02 -.19766E-01 -.36817E-01
 -.53889E-01 -.66204E-01 -.69699E-01 -.63021E-01 -.48312E-01 -.30195E-01 -.13596E-01 -.18133E-02 0.41424E-02 0.50032E-02
 0.23147E-02 -.22012E-02 -.69064E-02 -.10391E-01 -.37077E-01 -.33985E-01 -.25745E-01 -.14975E-01 -.47295E-02 0.25794E-02
 0.56410E-02 0.41191E-02 -.15940E-02 -.10358E-01 -.20130E-01 -.28182E-01 -.31964E-01 -.30227E-01 -.23634E-01 -.14371E-01
 -.50902E-02 0.20375E-02 0.56735E-02 0.52257E-02 0.81306E-03 -.65389E-02 -.14789E-01 -.21293E-01 -.23763E-01 -.21293E-01
 -.14789E-01 -.65389E-02 0.81306E-03 0.52257E-02 0.56735E-02 0.20375E-02 -.50902E-02 -.14371E-01 -.23634E-01 -.30227E-01
 -.31964E-01 -.28182E-01 -.20130E-01 -.10358E-01 -.15940E-02 0.41191E-02 0.56410E-02 0.25794E-02 -.47295E-02 -.14975E-01
 -.25745E-01 -.33985E-01 -.84107E-01 -.77986E-01 -.61680E-01 -.40361E-01 -.19929E-01 -.46942E-02 0.37108E-02 0.59727E-02
 0.39571E-02 -.31501E-03 -.51118E-02 -.90066E-02 -.10890E-01 -.10182E-01 -.70535E-02 -.24004E-02 0.23852E-02 0.55852E-02
 0.52257E-02 -.58525E-03 -.12742E-01 -.29993E-01 -.48504E-01 -.62862E-01 -.68283E-01 -.62862E-01 -.48504E-01 -.29993E-01
 -.12742E-01 -.58525E-03 0.52257E-02 0.55852E-02 0.23852E-02 -.24004E-02 -.70535E-02 -.10182E-01 -.10890E-01 -.90066E-02
 -.51118E-02 -.31501E-03 0.39571E-02 0.59727E-02 0.37108E-02 -.46942E-02 -.19929E-01 -.40361E-01 -.61680E-01 -.77986E-01
 -.15408     -.14375     -.11613     -.79741E-01 -.44429E-01 -.17431E-01 -.14229E-02 0.50325E-02 0.54537E-02 0.33075E-02
 0.83554E-03 -.97515E-03 -.18140E-02 -.15331E-02 -.33090E-04 0.24852E-02 0.50714E-02 0.56040E-02 0.81306E-03 -.12742E-01
 -.36695E-01 -.68812E-01 -.10238     -.12808     -.13773     -.12808     -.10238     -.68812E-01 -.36695E-01 -.12742E-01
 0.81306E-03 0.56040E-02 0.50714E-02 0.24852E-02 -.33090E-04 -.15331E-02 -.18140E-02 -.97515E-03 0.83554E-03 0.33075E-02
 0.54537E-02 0.50325E-02 -.14229E-02 -.17431E-01 -.44429E-01 -.79741E-01 -.11613     -.14375     -.23952     -.22428    
 -.18338     -.12913     -.75854E-01 -.34330E-01 -.87743E-02 0.27054E-02 0.52409E-02 0.39923E-02 0.22255E-02 0.11282E-02
 0.73852E-03 0.97223E-03 0.20126E-02 0.38731E-02 0.54325E-02 0.36004E-02 -.65389E-02 -.29993E-01 -.68812E-01 -.11921    
 -.17094     -.21012     -.22476     -.21012     -.17094     -.11921     -.68812E-01 -.29993E-01 -.65389E-02 0.36004E-02
 0.54325E-02 0.38731E-02 0.20126E-02 0.97223E-03 0.73852E-03 0.11282E-02 0.22255E-02 0.39923E-02 0.52409E-02 0.27054E-02
 -.87743E-02 -.34330E-01 -.75854E-01 -.12913     -.18338     -.22428     -.32396     -.30402     -.25038     -.17882    
 -.10792     -.51868E-01 -.16532E-01 0.19146E-03 0.47836E-02 0.39785E-02 0.21855E-02 0.11028E-02 0.81762E-03 0.11567E-02
 0.22773E-02 0.41195E-02 0.50880E-02 0.95749E-03 -.14789E-01 -.48504E-01 -.10238     -.17094     -.24043     -.29269    
 -.31216     -.29269     -.24043     -.17094     -.10238     -.48504E-01 -.14789E-01 0.95749E-03 0.50880E-02 0.41195E-02
 0.22773E-02 0.11567E-02 0.81762E-03 0.11028E-02 0.21855E-02 0.39785E-02 0.47836E-02 0.19146E-03 -.16532E-01 -.51868E-01
 -.10792     -.17882     -.25038     -.30402     -.38651     -.36316     -.30026     -.21605     -.13213     -.65234E-01
 -.22456E-01 -.16461E-02 0.45715E-02 0.40438E-02 0.20574E-02 0.78784E-03 0.46795E-03 0.91056E-03 0.22188E-02 0.41834E-02
 0.47583E-02 -.11736E-02 -.21293E-01 -.62862E-01 -.12808     -.21012     -.29269     -.35452     -.37750     -.35452    
 -.29269     -.21012     -.12808     -.62862E-01 -.21293E-01 -.11736E-02 0.47583E-02 0.41834E-02 0.22188E-02 0.91056E-03
 0.46795E-03 0.78784E-03 0.20574E-02 0.40438E-02 0.45715E-02 -.16461E-02 -.22456E-01 -.65234E-01 -.13213     -.21605    
 -.30026     -.36316     -.40965     -.38505     -.31875     -.22989     -.14117     -.70242E-01 -.24673E-01 -.23111E-02
 0.45347E-02 0.41127E-02 0.20367E-02 0.67258E-03 0.32315E-03 0.80412E-03 0.21942E-02 0.42152E-02 0.46404E-02 -.19837E-02
 -.23763E-01 -.68283E-01 -.13773     -.22476     -.31216     -.37750     -.40177     -.37750     -.31216     -.22476    
 -.13773     -.68283E-01 -.23763E-01 -.19837E-02 0.46404E-02 0.42152E-02 0.21942E-02 0.80412E-03 0.32315E-03 0.67258E-03
 0.20367E-02 0.41127E-02 0.45347E-02 -.23111E-02 -.24673E-01 -.70242E-01 -.14117     -.22989     -.31875     -.38505    
 -.38651     -.36316     -.30026     -.21605     -.13213     -.65234E-01 -.22456E-01 -.16461E-02 0.45715E-02 0.40438E-02
 0.20574E-02 0.78784E-03 0.46795E-03 0.91056E-03 0.22188E-02 0.41834E-02 0.47583E-02 -.11736E-02 -.21293E-01 -.62862E-01
 -.12808     -.21012     -.29269     -.35452     -.37750     -.35452     -.29269     -.21012     -.12808     -.62862E-01
 -.21293E-01 -.11736E-02 0.47583E-02 0.41834E-02 0.22188E-02 0.91056E-03 0.46795E-03 0.78784E-03 0.20574E-02 0.40438E-02
 0.45715E-02 -.16461E-02 -.22456E-01 -.65234E-01 -.13213     -.21605     -.30026     -.36316     -.32396     -.30402    
 -.25038     -.17882     -.10792     -.51868E-01 -.16532E-01 0.19146E-03 0.47836E-02 0.39785E-02 0.21855E-02 0.11028E-02
 0.81762E-03 0.11567E-02 0.22773E-02 0.41195E-02 0.50880E-02 0.95749E-03 -.14789E-01 -.48504E-01 -.10238     -.17094    
 -.24043     -.29269     -.31216     -.29269     -.24043     -.17094     -.10238     -.48504E-01 -.14789E-01 0.95749E-03
 0.50880E-02 0.41195E-02 0.22773E-02 0.11567E-02 0.81762E-03 0.11028E-02 0.21855E-02 0.39785E-02 0.47836E-02 0.19146E-03
 -.16532E-01 -.51868E-01 -.10792     -.17882     -.25038     -.30402     -.23952     -.22428     -.18338     -.12913    
 -.75854E-01 -.34330E-01 -.87743E-02 0.27054E-02 0.52409E-02 0.39923E-02 0.22255E-02 0.11282E-02 0.73852E-03 0.97223E-03
 0.20126E-02 0.38731E-02 0.54325E-02 0.36004E-02 -.65389E-02 -.29993E-01 -.68812E-01 -.11921     -.17094     -.21012    
 -.22476     -.21012     -.17094     -.11921     -.68812E-01 -.29993E-01 -.65389E-02 0.36004E-02 0.54325E-02 0.38731E-02
 0.20126E-02 0.97223E-03 0.73852E-03 0.11282E-02 0.22255E-02 0.39923E-02 0.52409E-02 0.27054E-02 -.87743E-02 -.34330E-01
 -.75854E-01 -.12913     -.18338     -.22428     -.15408     -.14375     -.11613     -.79741E-01 -.44429E-01 -.17431E-01
 -.14229E-02 0.50325E-02 0.54537E-02 0.33075E-02 0.83554E-03 -.97515E-03 -.18140E-02 -.15331E-02 -.33090E-04 0.24852E-02
 0.50714E-02 0.56040E-02 0.81306E-03 -.12742E-01 -.36695E-01 -.68812E-01 -.10238     -.12808     -.13773     -.12808    
 -.10238     -.68812E-01 -.36695E-01 -.12742E-01 0.81306E-03 0.56040E-02 0.50714E-02 0.24852E-02 -.33090E-04 -.15331E-02
 -.18140E-02 -.97515E-03 0.83554E-03 0.33075E-02 0.54537E-02 0.50325E-02 -.14229E-02 -.17431E-01 -.44429E-01 -.79741E-01
 -.11613     -.14375     -.84107E-01 -.77986E-01 -.61680E-01 -.40361E-01 -.19929E-01 -.46942E-02 0.37108E-02 0.59727E-02
 0.39571E-02 -.31501E-03 -.51118E-02 -.90066E-02 -.10890E-01 -.10182E-01 -.70535E-02 -.24004E-02 0.23852E-02 0.55852E-02
 0.52257E-02 -.58525E-03 -.12742E-01 -.29993E-01 -.48504E-01 -.62862E-01 -.68283E-01 -.62862E-01 -.48504E-01 -.29993E-01
 -.12742E-01 -.58525E-03 0.52257E-02 0.55852E-02 0.23852E-02 -.24004E-02 -.70535E-02 -.10182E-01 -.10890E-01 -.90066E-02
 -.51118E-02 -.31501E-03 0.39571E-02 0.59727E-02 0.37108E-02 -.46942E-02 -.19929E-01 -.40361E-01 -.61680E-01 -.77986E-01
 -.37077E-01 -.33985E-01 -.25745E-01 -.14975E-01 -.47295E-02 0.25794E-02 0.56410E-02 0.41191E-02 -.15940E-02 -.10358E-01
 -.20130E-01 -.28182E-01 -.31964E-01 -.30227E-01 -.23634E-01 -.14371E-01 -.50902E-02 0.20375E-02 0.56735E-02 0.52257E-02
 0.81306E-03 -.65389E-02 -.14789E-01 -.21293E-01 -.23763E-01 -.21293E-01 -.14789E-01 -.65389E-02 0.81306E-03 0.52257E-02
 0.56735E-02 0.20375E-02 -.50902E-02 -.14371E-01 -.23634E-01 -.30227E-01 -.31964E-01 -.28182E-01 -.20130E-01 -.10358E-01
 -.15940E-02 0.41191E-02 0.56410E-02 0.25794E-02 -.47295E-02 -.14975E-01 -.25745E-01 -.33985E-01 -.11672E-01 -.10391E-01
 -.69064E-02 -.22012E-02 0.23147E-02 0.50032E-02 0.41424E-02 -.18133E-02 -.13596E-01 -.30195E-01 -.48312E-01 -.63021E-01
 -.69699E-01 -.66204E-01 -.53889E-01 -.36817E-01 -.19766E-01 -.63124E-02 0.20375E-02 0.55852E-02 0.56040E-02 0.36004E-02
 0.95749E-03 -.11736E-02 -.19837E-02 -.11736E-02 0.95749E-03 0.36004E-02 0.56040E-02 0.55852E-02 0.20375E-02 -.63124E-02
 -.19766E-01 -.36817E-01 -.53889E-01 -.66204E-01 -.69699E-01 -.63021E-01 -.48312E-01 -.30195E-01 -.13596E-01 -.18133E-02
 0.41424E-02 0.50032E-02 0.23147E-02 -.22012E-02 -.69064E-02 -.10391E-01 -.13621E-02 -.94680E-03 0.31787E-03 0.22781E-02
 0.41452E-02 0.41398E-02 -.41877E-03 -.12333E-01 -.33033E-01 -.60902E-01 -.90568E-01 -.11421     -.12466     -.11871    
 -.98559E-01 -.70586E-01 -.42393E-01 -.19766E-01 -.50902E-02 0.23852E-02 0.50714E-02 0.54325E-02 0.50880E-02 0.47583E-02
 0.46404E-02 0.47583E-02 0.50880E-02 0.54325E-02 0.50714E-02 0.23852E-02 -.50902E-02 -.19766E-01 -.42393E-01 -.70586E-01
 -.98559E-01 -.11871     -.12466     -.11421     -.90568E-01 -.60902E-01 -.33033E-01 -.12333E-01 -.41877E-03 0.41398E-02
 0.41452E-02 0.22781E-02 0.31787E-03 -.94680E-03 0.11498E-02 0.12823E-02 0.18446E-02 0.29320E-02 0.36919E-02 0.16630E-02
 -.70318E-02 -.26340E-01 -.57999E-01 -.99276E-01 -.14228     -.17602     -.19064     -.18182     -.15264     -.11199    
 -.70586E-01 -.36817E-01 -.14371E-01 -.24004E-02 0.24852E-02 0.38731E-02 0.41195E-02 0.41834E-02 0.42152E-02 0.41834E-02
 0.41195E-02 0.38731E-02 0.24852E-02 -.24004E-02 -.14371E-01 -.36817E-01 -.70586E-01 -.11199     -.15264     -.18182    
 -.19064     -.17602     -.14228     -.99276E-01 -.57999E-01 -.26340E-01 -.70318E-02 0.16630E-02 0.36919E-02 0.29320E-02
 0.18446E-02 0.12823E-02 0.10023E-02 0.11260E-02 0.16694E-02 0.26539E-02 0.28527E-02 -.10123E-02 -.13930E-01 -.40750E-01
 -.83253E-01 -.13746     -.19308     -.23621     -.25464     -.24305     -.20533     -.15264     -.98559E-01 -.53889E-01
 -.23634E-01 -.70535E-02 -.33090E-04 0.20126E-02 0.22773E-02 0.22188E-02 0.21942E-02 0.22188E-02 0.22773E-02 0.20126E-02
 -.33090E-04 -.70535E-02 -.23634E-01 -.53889E-01 -.98559E-01 -.15264     -.20533     -.24305     -.25464     -.23621    
 -.19308     -.13746     -.83253E-01 -.40750E-01 -.13930E-01 -.10123E-02 0.28527E-02 0.26539E-02 0.16694E-02 0.11260E-02
 0.60033E-03 0.78335E-03 0.14684E-02 0.25311E-02 0.23969E-02 -.28260E-02 -.18899E-01 -.51261E-01 -.10164     -.16513    
 -.22969     -.27941     -.30045     -.28684     -.24305     -.18182     -.11871     -.66204E-01 -.30227E-01 -.10182E-01
 -.15331E-02 0.97223E-03 0.11567E-02 0.91056E-03 0.80412E-03 0.91056E-03 0.11567E-02 0.97223E-03 -.15331E-02 -.10182E-01
 -.30227E-01 -.66204E-01 -.11871     -.18182     -.24305     -.28684     -.30045     -.27941     -.22969     -.16513    
 -.10164     -.51261E-01 -.18899E-01 -.28260E-02 0.23969E-02 0.25311E-02 0.14684E-02 0.78335E-03 0.71607E-03 0.90586E-03
 0.16067E-02 0.26703E-02 0.24422E-02 -.31520E-02 -.20145E-01 -.54211E-01 -.10710     -.17359     -.24107     -.29292    
 -.31477     -.30045     -.25464     -.19064     -.12466     -.69699E-01 -.31964E-01 -.10890E-01 -.18140E-02 0.73852E-03
 0.81762E-03 0.46795E-03 0.32315E-03 0.46795E-03 0.81762E-03 0.73852E-03 -.18140E-02 -.10890E-01 -.31964E-01 -.69699E-01
 -.12466     -.19064     -.25464     -.30045     -.31477     -.29292     -.24107     -.17359     -.10710     -.54211E-01
 -.20145E-01 -.31520E-02 0.24422E-02 0.26703E-02 0.16067E-02 0.90586E-03 0.18004E-02 0.18896E-02 0.23430E-02 0.31806E-02
 0.30271E-02 -.18480E-02 -.17168E-01 -.48461E-01 -.97611E-01 -.15986     -.22334     -.27227     -.29292     -.27941    
 -.23621     -.17602     -.11421     -.63021E-01 -.28182E-01 -.90066E-02 -.97515E-03 0.11282E-02 0.11028E-02 0.78784E-03
 0.67258E-03 0.78784E-03 0.11028E-02 0.11282E-02 -.97515E-03 -.90066E-02 -.28182E-01 -.63021E-01 -.11421     -.17602    
 -.23621     -.27941     -.29292     -.27227     -.22334     -.15986     -.97611E-01 -.48461E-01 -.17168E-01 -.18480E-02
 0.30271E-02 0.31806E-02 0.23430E-02 0.18896E-02 0.42594E-02 0.41659E-02 0.41478E-02 0.44951E-02 0.43694E-02 0.83674E-03
 -.10959E-01 -.35978E-01 -.76261E-01 -.12815     -.18170     -.22334     -.24107     -.22969     -.19308     -.14228    
 -.90568E-01 -.48312E-01 -.20130E-01 -.51118E-02 0.83554E-03 0.22255E-02 0.21855E-02 0.20574E-02 0.20367E-02 0.20574E-02
 0.21855E-02 0.22255E-02 0.83554E-03 -.51118E-02 -.20130E-01 -.48312E-01 -.90568E-01 -.14228     -.19308     -.22969    
 -.24107     -.22334     -.18170     -.12815     -.76261E-01 -.35978E-01 -.10959E-01 0.83674E-03 0.43694E-02 0.44951E-02
 0.41478E-02 0.41659E-02 0.73637E-02 0.71525E-02 0.67901E-02 0.67040E-02 0.65543E-02 0.43873E-02 -.33923E-02 -.20755E-01
 -.49704E-01 -.87947E-01 -.12815     -.15986     -.17359     -.16513     -.13746     -.99276E-01 -.60902E-01 -.30195E-01
 -.10358E-01 -.31501E-03 0.33075E-02 0.39923E-02 0.39785E-02 0.40438E-02 0.41127E-02 0.40438E-02 0.39785E-02 0.39923E-02
 0.33075E-02 -.31501E-03 -.10358E-01 -.30195E-01 -.60902E-01 -.99276E-01 -.13746     -.16513     -.17359     -.15986    
 -.12815     -.87947E-01 -.49704E-01 -.20755E-01 -.33923E-02 0.43873E-02 0.65543E-02 0.67040E-02 0.67901E-02 0.71525E-02
 0.75399E-02 0.75759E-02 0.77796E-02 0.82657E-02 0.87213E-02 0.79212E-02 0.36102E-02 -.68472E-02 -.25011E-01 -.49704E-01
 -.76261E-01 -.97611E-01 -.10710     -.10164     -.83253E-01 -.57999E-01 -.33033E-01 -.13596E-01 -.15940E-02 0.39571E-02
 0.54537E-02 0.52409E-02 0.47836E-02 0.45715E-02 0.45347E-02 0.45715E-02 0.47836E-02 0.52409E-02 0.54537E-02 0.39571E-02
 -.15940E-02 -.13596E-01 -.33033E-01 -.57999E-01 -.83253E-01 -.10164     -.10710     -.97611E-01 -.76261E-01 -.49704E-01
 -.25011E-01 -.68472E-02 0.36102E-02 0.79212E-02 0.87213E-02 0.82657E-02 0.77796E-02 0.75759E-02 -.24938E-02 -.14218E-02
 0.14175E-02 0.50592E-02 0.82868E-02 0.98556E-02 0.85259E-02 0.31557E-02 -.68472E-02 -.20755E-01 -.35978E-01 -.48461E-01
 -.54211E-01 -.51261E-01 -.40750E-01 -.26340E-01 -.12333E-01 -.18133E-02 0.41191E-02 0.59727E-02 0.50325E-02 0.27054E-02
 0.19146E-03 -.16461E-02 -.23111E-02 -.16461E-02 0.19146E-03 0.27054E-02 0.50325E-02 0.59727E-02 0.41191E-02 -.18133E-02
 -.12333E-01 -.26340E-01 -.40750E-01 -.51261E-01 -.54211E-01 -.48461E-01 -.35978E-01 -.20755E-01 -.68472E-02 0.31557E-02
 0.85259E-02 0.98556E-02 0.82868E-02 0.50592E-02 0.14175E-02 -.14218E-02 -.32348E-01 -.29025E-01 -.20273E-01 -.91228E-02
 0.10369E-02 0.77887E-02 0.10202E-01 0.85259E-02 0.36102E-02 -.33923E-02 -.10959E-01 -.17168E-01 -.20145E-01 -.18899E-01
 -.13930E-01 -.70318E-02 -.41877E-03 0.41424E-02 0.56410E-02 0.37108E-02 -.14229E-02 -.87743E-02 -.16532E-01 -.22456E-01
 -.24673E-01 -.22456E-01 -.16532E-01 -.87743E-02 -.14229E-02 0.37108E-02 0.56410E-02 0.41424E-02 -.41877E-03 -.70318E-02
 -.13930E-01 -.18899E-01 -.20145E-01 -.17168E-01 -.10959E-01 -.33923E-02 0.36102E-02 0.85259E-02 0.10202E-01 0.77887E-02
 0.10369E-02 -.91228E-02 -.20273E-01 -.29025E-01 -.89960E-01 -.82936E-01 -.64294E-01 -.40129E-01 -.17347E-01 -.85228E-03
 0.77887E-02 0.98556E-02 0.79212E-02 0.43873E-02 0.83674E-03 -.18480E-02 -.31520E-02 -.28260E-02 -.10123E-02 0.16630E-02
 0.41398E-02 0.50032E-02 0.25794E-02 -.46942E-02 -.17431E-01 -.34330E-01 -.51868E-01 -.65234E-01 -.70242E-01 -.65234E-01
 -.51868E-01 -.34330E-01 -.17431E-01 -.46942E-02 0.25794E-02 0.50032E-02 0.41398E-02 0.16630E-02 -.10123E-02 -.28260E-02
 -.31520E-02 -.18480E-02 0.83674E-03 0.43873E-02 0.79212E-02 0.98556E-02 0.77887E-02 -.85228E-03 -.17347E-01 -.40129E-01
 -.64294E-01 -.82936E-01 -.17626     -.16424     -.13210     -.89747E-01 -.48655E-01 -.17347E-01 0.10369E-02 0.82868E-02
 0.87213E-02 0.65543E-02 0.43694E-02 0.30271E-02 0.24422E-02 0.23969E-02 0.28527E-02 0.36919E-02 0.41452E-02 0.23147E-02
 -.47295E-02 -.19929E-01 -.44429E-01 -.75854E-01 -.10792     -.13213     -.14117     -.13213     -.10792     -.75854E-01
 -.44429E-01 -.19929E-01 -.47295E-02 0.23147E-02 0.41452E-02 0.36919E-02 0.28527E-02 0.23969E-02 0.24422E-02 0.30271E-02
 0.43694E-02 0.65543E-02 0.87213E-02 0.82868E-02 0.10369E-02 -.17347E-01 -.48655E-01 -.89747E-01 -.13210     -.16424    
 -.28127     -.26361     -.21608     -.15263     -.89747E-01 -.40129E-01 -.91228E-02 0.50592E-02 0.82657E-02 0.67040E-02
 0.44951E-02 0.31806E-02 0.26703E-02 0.25311E-02 0.26539E-02 0.29320E-02 0.22781E-02 -.22012E-02 -.14975E-01 -.40361E-01
 -.79741E-01 -.12913     -.17882     -.21605     -.22989     -.21605     -.17882     -.12913     -.79741E-01 -.40361E-01
 -.14975E-01 -.22012E-02 0.22781E-02 0.29320E-02 0.26539E-02 0.25311E-02 0.26703E-02 0.31806E-02 0.44951E-02 0.67040E-02
 0.82657E-02 0.50592E-02 -.91228E-02 -.40129E-01 -.89747E-01 -.15263     -.21608     -.26361     -.38449     -.36155    
 -.29956     -.21608     -.13210     -.64294E-01 -.20273E-01 0.14175E-02 0.77796E-02 0.67901E-02 0.41478E-02 0.23430E-02
 0.16067E-02 0.14684E-02 0.16694E-02 0.18446E-02 0.31787E-03 -.69064E-02 -.25745E-01 -.61680E-01 -.11613     -.18338    
 -.25038     -.30026     -.31875     -.30026     -.25038     -.18338     -.11613     -.61680E-01 -.25745E-01 -.69064E-02
 0.31787E-03 0.18446E-02 0.16694E-02 0.14684E-02 0.16067E-02 0.23430E-02 0.41478E-02 0.67901E-02 0.77796E-02 0.14175E-02
 -.20273E-01 -.64294E-01 -.13210     -.21608     -.29956     -.36155     -.46060     -.43390     -.36155     -.26361    
 -.16424     -.82936E-01 -.29025E-01 -.14218E-02 0.75759E-02 0.71525E-02 0.41659E-02 0.18896E-02 0.90586E-03 0.78335E-03
 0.11260E-02 0.12823E-02 -.94680E-03 -.10391E-01 -.33985E-01 -.77986E-01 -.14375     -.22428     -.30402     -.36316    
 -.38505     -.36316     -.30402     -.22428     -.14375     -.77986E-01 -.33985E-01 -.10391E-01 -.94680E-03 0.12823E-02
 0.11260E-02 0.78335E-03 0.90586E-03 0.18896E-02 0.41659E-02 0.71525E-02 0.75759E-02 -.14218E-02 -.29025E-01 -.82936E-01
 -.16424     -.26361     -.36155     -.43390     -.59149E-01 -.57114E-01 -.51521E-01 -.43649E-01 -.34943E-01 -.26474E-01
 -.18803E-01 -.12203E-01 -.69225E-02 -.31878E-02 -.99138E-03 0.13429E-04 0.34744E-03 0.41251E-03 0.35720E-03 0.25267E-03
 0.49598E-03 0.21750E-02 0.70403E-02 0.16835E-01 0.32132E-01 0.51331E-01 0.70580E-01 0.84933E-01 0.90253E-01 0.84933E-01
 0.70580E-01 0.51331E-01 0.32132E-01 0.16835E-01 0.70403E-02 0.21750E-02 0.49598E-03 0.25267E-03 0.35720E-03 0.41251E-03
 0.34744E-03 0.13429E-04 -.99138E-03 -.31878E-02 -.69225E-02 -.12203E-01 -.18803E-01 -.26474E-01 -.34943E-01 -.43649E-01
 -.51521E-01 -.57114E-01 -.57114E-01 -.55174E-01 -.49844E-01 -.42341E-01 -.34022E-01 -.25882E-01 -.18443E-01 -.11982E-01
 -.67775E-02 -.30789E-02 -.89710E-03 0.99964E-04 0.42073E-03 0.46169E-03 0.37275E-03 0.22098E-03 0.37527E-03 0.18589E-02
 0.63289E-02 0.15444E-01 0.29761E-01 0.47782E-01 0.65880E-01 0.79386E-01 0.84394E-01 0.79386E-01 0.65880E-01 0.47782E-01
 0.29761E-01 0.15444E-01 0.63289E-02 0.18589E-02 0.37527E-03 0.22098E-03 0.37275E-03 0.46169E-03 0.42073E-03 0.99964E-04
 -.89710E-03 -.30789E-02 -.67775E-02 -.11982E-01 -.18443E-01 -.25882E-01 -.34022E-01 -.42341E-01 -.49844E-01 -.55174E-01
 -.51521E-01 -.49844E-01 -.45237E-01 -.38732E-01 -.31445E-01 -.24170E-01 -.17335E-01 -.11235E-01 -.62163E-02 -.25955E-02
 -.43478E-03 0.55309E-03 0.84251E-03 0.81833E-03 0.63408E-03 0.34188E-03 0.23320E-03 0.11627E-02 0.45452E-02 0.11817E-01
 0.23494E-01 0.38351E-01 0.53359E-01 0.64595E-01 0.68767E-01 0.64595E-01 0.53359E-01 0.38351E-01 0.23494E-01 0.11817E-01