   9   9   0   0
  0.6049433E+02  0.5499743E-09  0.5499743E-09  0.1800000E-08  0.5000000E-15
   1.0000000000000000E-004
  CAR 
 unknown system                          
      3.33720245    -15.61599285  301     -1.23935522      1.00000000
    -15.616  0.0000E+00  0.0000E+00
    -15.553  0.0000E+00  0.0000E+00
    -15.490  0.0000E+00  0.0000E+00
    -15.426  0.0000E+00  0.0000E+00
    -15.363  0.0000E+00  0.0000E+00
    -15.300  0.0000E+00  0.0000E+00
    -15.237 -0.2151E-26 -0.1359E-27
    -15.174 -0.3132E-24 -0.1992E-25
    -15.111 -0.3729E-22 -0.2376E-23
    -15.047 -0.3631E-20 -0.2318E-21
    -14.984 -0.2891E-18 -0.1850E-19
    -14.921 -0.1882E-16 -0.1207E-17
    -14.858 -0.1001E-14 -0.6444E-16
    -14.795 -0.4176E-13 -0.2703E-14
    -14.732 -0.1498E-11 -0.9736E-13
    -14.668 -0.4326E-10 -0.2830E-11
    -14.605 -0.1020E-08 -0.6729E-10
    -14.542 -0.1963E-07 -0.1307E-08
    -14.479 -0.3077E-06 -0.2074E-07
    -14.416 -0.3927E-05 -0.2688E-06
    -14.352 -0.4076E-04 -0.2844E-05
    -14.289 -0.3433E-03 -0.2453E-04
    -14.226 -0.2339E-02 -0.1723E-03
    -14.163 -0.1284E-01 -0.9834E-03
    -14.100 -0.5629E-01 -0.4540E-02
    -14.037 -0.1945E+00 -0.1683E-01
    -13.973 -0.5153E+00 -0.4939E-01
    -13.910 -0.9796E+00 -0.1113E+00
    -13.847 -0.1050E+01 -0.1776E+00
    -13.784  0.5925E+00 -0.1402E+00
    -13.721  0.5430E+01  0.2029E+00
    -13.657  0.1329E+02  0.1042E+01
    -13.594  0.2097E+02  0.2367E+01
    -13.531  0.2389E+02  0.3877E+01
    -13.468  0.2003E+02  0.5142E+01
    -13.405  0.1195E+02  0.5897E+01
    -13.342  0.4341E+01  0.6172E+01
    -13.278  0.3674E-01  0.6174E+01
    -13.215 -0.1179E+01  0.6100E+01
    -13.152 -0.9262E+00  0.6041E+01
    -13.089 -0.4439E+00  0.6013E+01
    -13.026 -0.1545E+00  0.6003E+01
    -12.963 -0.4126E-01  0.6001E+01
    -12.899 -0.8657E-02  0.6000E+01
    -12.836 -0.1446E-02  0.6000E+01
    -12.773 -0.1938E-03  0.6000E+01
    -12.710 -0.2094E-04  0.6000E+01
    -12.647 -0.1833E-05  0.6000E+01
    -12.583 -0.1788E-06  0.6000E+01
    -12.520 -0.7099E-06  0.6000E+01
    -12.457 -0.8146E-05  0.6000E+01
    -12.394 -0.7630E-04  0.6000E+01
    -12.331 -0.5752E-03  0.6000E+01
    -12.268 -0.3470E-02  0.6000E+01
    -12.204 -0.1661E-01  0.5999E+01
    -12.141 -0.6225E-01  0.5995E+01
    -12.078 -0.1779E+00  0.5984E+01
    -12.015 -0.3663E+00  0.5960E+01
    -11.952 -0.4523E+00  0.5932E+01
    -11.889  0.4183E-01  0.5934E+01
    -11.825  0.1669E+01  0.6040E+01
    -11.762  0.4377E+01  0.6316E+01
    -11.699  0.7135E+01  0.6767E+01
    -11.636  0.8762E+01  0.7321E+01
    -11.573  0.9178E+01  0.7901E+01
    -11.509  0.9192E+01  0.8481E+01
    -11.446  0.9005E+01  0.9050E+01
    -11.383  0.7854E+01  0.9546E+01
    -11.320  0.5387E+01  0.9887E+01
    -11.257  0.2508E+01  0.1005E+02
    -11.194  0.4537E+00  0.1007E+02
    -11.130 -0.3801E+00  0.1005E+02
    -11.067 -0.4249E+00  0.1002E+02
    -11.004 -0.2375E+00  0.1001E+02
    -10.941 -0.9211E-01  0.1000E+02
    -10.878 -0.2687E-01  0.1000E+02
    -10.815 -0.6091E-02  0.1000E+02
    -10.751 -0.1092E-02  0.1000E+02
    -10.688 -0.1562E-03  0.1000E+02
    -10.625 -0.1795E-04  0.1000E+02
    -10.562 -0.1664E-05  0.1000E+02
    -10.499 -0.1249E-06  0.1000E+02
    -10.435 -0.7605E-08  0.1000E+02
    -10.372 -0.3762E-09  0.1000E+02
    -10.309 -0.1514E-10  0.1000E+02
    -10.246 -0.4991E-12  0.1000E+02
    -10.183 -0.1406E-13  0.1000E+02
    -10.120  0.0000E+00  0.1000E+02
    -10.056  0.0000E+00  0.1000E+02
     -9.993  0.0000E+00  0.1000E+02
     -9.930  0.0000E+00  0.1000E+02
     -9.867  0.0000E+00  0.1000E+02
     -9.804  0.0000E+00  0.1000E+02
     -9.741  0.0000E+00  0.1000E+02
     -9.677  0.0000E+00  0.1000E+02
     -9.614  0.0000E+00  0.1000E+02
     -9.551  0.0000E+00  0.1000E+02
     -9.488  0.0000E+00  0.1000E+02
     -9.425  0.0000E+00  0.1000E+02
     -9.361 -0.8638E-27  0.1000E+02
     -9.298 -0.1295E-24  0.1000E+02
     -9.235 -0.1596E-22  0.1000E+02
     -9.172 -0.1608E-20  0.1000E+02
     -9.109 -0.1323E-18  0.1000E+02
     -9.046 -0.8898E-17  0.1000E+02
     -8.982 -0.4886E-15  0.1000E+02
     -8.919 -0.2191E-13  0.1000E+02
     -8.856 -0.7751E-12  0.1000E+02
     -8.793 -0.2308E-10  0.1000E+02
     -8.730 -0.5585E-09  0.1000E+02
     -8.666 -0.1100E-07  0.1000E+02
     -8.603 -0.1759E-06  0.1000E+02
     -8.540 -0.2281E-05  0.1000E+02
     -8.477 -0.2394E-04  0.1000E+02
     -8.414 -0.2026E-03  0.1000E+02
     -8.351 -0.1376E-02  0.1000E+02
     -8.287 -0.7455E-02  0.9999E+01
     -8.224 -0.3186E-01  0.9997E+01
     -8.161 -0.1054E+00  0.9991E+01
     -8.098 -0.2595E+00  0.9974E+01
     -8.035 -0.4302E+00  0.9947E+01
     -7.972 -0.2857E+00  0.9929E+01
     -7.908  0.7841E+00  0.9979E+01
     -7.845  0.3161E+01  0.1018E+02
     -7.782  0.6197E+01  0.1057E+02
     -7.719  0.8195E+01  0.1109E+02
     -7.656  0.7765E+01  0.1158E+02
     -7.592  0.5221E+01  0.1191E+02
     -7.529  0.2249E+01  0.1205E+02
     -7.466  0.2933E+00  0.1207E+02
     -7.403 -0.4026E+00  0.1204E+02
     -7.340 -0.3855E+00  0.1202E+02
     -7.277 -0.2002E+00  0.1201E+02
     -7.213 -0.7330E-01  0.1200E+02
     -7.150 -0.2032E-01  0.1200E+02
     -7.087 -0.4392E-02  0.1200E+02
     -7.024 -0.7539E-03  0.1200E+02
     -6.961 -0.1244E-03  0.1200E+02
     -6.898 -0.1950E-03  0.1200E+02
     -6.834 -0.1263E-02  0.1200E+02
     -6.771 -0.6913E-02  0.1200E+02
     -6.708 -0.2990E-01  0.1200E+02
     -6.645 -0.1003E+00  0.1199E+02
     -6.582 -0.2520E+00  0.1198E+02
     -6.518 -0.4339E+00  0.1195E+02
     -6.455 -0.3469E+00  0.1193E+02
     -6.392  0.5692E+00  0.1196E+02
     -6.329  0.2665E+01  0.1213E+02
     -6.266  0.5369E+01  0.1247E+02
     -6.203  0.7341E+01  0.1293E+02
     -6.139  0.7936E+01  0.1343E+02
     -6.076  0.8279E+01  0.1396E+02
     -6.013  0.1013E+02  0.1460E+02
     -5.950  0.1389E+02  0.1548E+02
     -5.887  0.1850E+02  0.1664E+02
     -5.824  0.2282E+02  0.1809E+02
     -5.760  0.2583E+02  0.1972E+02
     -5.697  0.2583E+02  0.2135E+02
     -5.634  0.2158E+02  0.2271E+02
     -5.571  0.1447E+02  0.2363E+02
     -5.508  0.8189E+01  0.2414E+02
     -5.444  0.5463E+01  0.2449E+02
     -5.381  0.6046E+01  0.2487E+02
     -5.318  0.8264E+01  0.2539E+02
     -5.255  0.1141E+02  0.2611E+02
     -5.192  0.1544E+02  0.2709E+02
     -5.129  0.1910E+02  0.2830E+02
     -5.065  0.2013E+02  0.2957E+02
     -5.002  0.1739E+02  0.3067E+02
     -4.939  0.1219E+02  0.3144E+02
     -4.876  0.7208E+01  0.3189E+02
     -4.813  0.4727E+01  0.3219E+02
     -4.749  0.5068E+01  0.3251E+02
     -4.686  0.6468E+01  0.3292E+02
     -4.623  0.6896E+01  0.3336E+02
     -4.560  0.6346E+01  0.3376E+02
     -4.497  0.6920E+01  0.3419E+02
     -4.434  0.1040E+02  0.3485E+02
     -4.370  0.1598E+02  0.3586E+02
     -4.307  0.2043E+02  0.3715E+02
     -4.244  0.2053E+02  0.3845E+02
     -4.181  0.1573E+02  0.3944E+02
     -4.118  0.8621E+01  0.3999E+02
     -4.055  0.2616E+01  0.4015E+02
     -3.991 -0.6595E+00  0.4011E+02
     -3.928 -0.1800E+01  0.4000E+02
     -3.865 -0.1951E+01  0.3987E+02
     -3.802 -0.1117E+01  0.3980E+02
     -3.739  0.2036E+01  0.3993E+02
     -3.675  0.8642E+01  0.4048E+02
     -3.612  0.1748E+02  0.4158E+02
     -3.549  0.2472E+02  0.4314E+02
     -3.486  0.2686E+02  0.4484E+02
     -3.423  0.2410E+02  0.4636E+02
     -3.360  0.2013E+02  0.4764E+02
     -3.296  0.1829E+02  0.4879E+02
     -3.233  0.1854E+02  0.4996E+02
     -3.170  0.1850E+02  0.5113E+02
     -3.107  0.1674E+02  0.5219E+02
     -3.044  0.1418E+02  0.5308E+02
     -2.981  0.1299E+02  0.5391E+02
     -2.917  0.1487E+02  0.5485E+02
     -2.854  0.1985E+02  0.5610E+02
     -2.791  0.2543E+02  0.5771E+02
     -2.728  0.2729E+02  0.5943E+02
     -2.665  0.2261E+02  0.6086E+02
     -2.601  0.1310E+02  0.6169E+02
     -2.538  0.4095E+01  0.6194E+02
     -2.475  0.7246E+00  0.6199E+02
     -2.412  0.5105E+01  0.6231E+02
     -2.349  0.1548E+02  0.6329E+02
     -2.286  0.2687E+02  0.6499E+02
     -2.222  0.3374E+02  0.6712E+02
     -2.159  0.3379E+02  0.6926E+02
     -2.096  0.2886E+02  0.7108E+02
     -2.033  0.2243E+02  0.7250E+02
     -1.970  0.1731E+02  0.7359E+02
     -1.907  0.1503E+02  0.7454E+02
     -1.843  0.1507E+02  0.7549E+02
     -1.780  0.1482E+02  0.7643E+02
     -1.717  0.1241E+02  0.7721E+02
     -1.654  0.9702E+01  0.7782E+02
     -1.591  0.1060E+02  0.7849E+02
     -1.527  0.1605E+02  0.7951E+02
     -1.464  0.2232E+02  0.8092E+02
     -1.401  0.2506E+02  0.8250E+02
     -1.338  0.2381E+02  0.8401E+02
     -1.275  0.2106E+02  0.8534E+02
     -1.212  0.1802E+02  0.8647E+02
     -1.148  0.1376E+02  0.8734E+02
     -1.085  0.8134E+01  0.8786E+02
     -1.022  0.3220E+01  0.8806E+02
     -0.959  0.1392E+01  0.8815E+02
     -0.896  0.2986E+01  0.8834E+02
     -0.833  0.5999E+01  0.8872E+02
     -0.769  0.7630E+01  0.8920E+02
     -0.706  0.6382E+01  0.8960E+02
     -0.643  0.3232E+01  0.8981E+02
     -0.580  0.1014E+01  0.8987E+02
     -0.517  0.2608E+01  0.9003E+02
     -0.453  0.8903E+01  0.9060E+02
     -0.390  0.1740E+02  0.9170E+02
     -0.327  0.2307E+02  0.9315E+02
     -0.264  0.2215E+02  0.9455E+02
     -0.201  0.1572E+02  0.9555E+02
     -0.138  0.8774E+01  0.9610E+02
     -0.074  0.5495E+01  0.9645E+02
     -0.011  0.5897E+01  0.9682E+02
      0.052  0.6923E+01  0.9726E+02
      0.115  0.6153E+01  0.9765E+02
      0.178  0.4045E+01  0.9790E+02
      0.242  0.2875E+01  0.9808E+02
      0.305  0.4033E+01  0.9834E+02
      0.368  0.6533E+01  0.9875E+02
      0.431  0.8006E+01  0.9926E+02
      0.494  0.7016E+01  0.9970E+02
      0.557  0.4254E+01  0.9997E+02
      0.621  0.1520E+01  0.1001E+03
      0.684 -0.2888E-01  0.1001E+03
      0.747 -0.4489E+00  0.1000E+03
      0.810 -0.3638E+00  0.1000E+03
      0.873 -0.2726E+00  0.9999E+02
      0.936 -0.3938E+00  0.9997E+02
      1.000 -0.7213E+00  0.9992E+02
      1.063 -0.8679E+00  0.9987E+02
      1.126  0.1731E+00  0.9988E+02
      1.189  0.3602E+01  0.1001E+03
      1.252  0.9333E+01  0.1007E+03
      1.316  0.1485E+02  0.1016E+03
      1.379  0.1663E+02  0.1027E+03
      1.442  0.1337E+02  0.1035E+03
      1.505  0.7392E+01  0.1040E+03
      1.568  0.2229E+01  0.1041E+03
      1.631 -0.3621E+00  0.1041E+03
      1.695 -0.8853E+00  0.1041E+03
      1.758 -0.5878E+00  0.1040E+03
      1.821 -0.2534E+00  0.1040E+03
      1.884 -0.8047E-01  0.1040E+03
      1.947 -0.1968E-01  0.1040E+03
      2.010 -0.3787E-02  0.1040E+03
      2.074 -0.5801E-03  0.1040E+03
      2.137 -0.7127E-04  0.1040E+03
      2.200 -0.7056E-05  0.1040E+03
      2.263 -0.5649E-06  0.1040E+03
      2.326 -0.3667E-07  0.1040E+03
      2.390 -0.1933E-08  0.1040E+03
      2.453 -0.8285E-10  0.1040E+03
      2.516 -0.2896E-11  0.1040E+03
      2.579 -0.8435E-13  0.1040E+03
      2.642  0.0000E+00  0.1040E+03
      2.705  0.0000E+00  0.1040E+03
      2.769  0.0000E+00  0.1040E+03
      2.832  0.0000E+00  0.1040E+03
      2.895  0.0000E+00  0.1040E+03
      2.958  0.0000E+00  0.1040E+03
      3.021  0.0000E+00  0.1040E+03
      3.084  0.0000E+00  0.1040E+03
      3.148  0.0000E+00  0.1040E+03
      3.211  0.0000E+00  0.1040E+03
      3.274  0.0000E+00  0.1040E+03
      3.337  0.0000E+00  0.1040E+03
