    9    9    1    1
  0.6049433E+02  0.5499742E-09  0.5499742E-09  0.1800000E-08  0.5000000E-15
   1.0000000000000000E-004
  CAR 
 unknown system                          
     86      1     52

  0.1262379E-14  0.1262379E-14  0.1262379E-14  0.1000000E+01
    1      -13.615993   1.000000
    2      -13.544499   1.000000
    3      -13.544499   1.000000
    4      -11.679687   1.000000
    5      -11.443977   1.000000
    6       -7.729200   1.000000
    7       -6.209907   1.000000
    8       -5.961351   1.000000
    9       -5.886321   1.000000
   10       -5.735336   1.000000
   11       -5.735336   1.000000
   12       -5.655093   1.000000
   13       -5.369547   1.000000
   14       -5.137606   1.000000
   15       -5.137606   1.000000
   16       -4.987946   1.000000
   17       -4.679237   1.000000
   18       -4.403694   1.000000
   19       -4.271542   1.000000
   20       -4.271542   1.000000
   21       -3.598927   1.000000
   22       -3.534783   1.000000
   23       -3.534783   1.000000
   24       -3.406381   1.000000
   25       -3.226496   1.000000
   26       -3.226496   1.000000
   27       -3.054543   1.000000
   28       -2.900507   1.000000
   29       -2.757887   1.000000
   30       -2.736296   1.000000
   31       -2.736296   1.000000
   32       -2.291905   1.000000
   33       -2.291905   1.000000
   34       -2.230402   1.000000
   35       -2.217082   1.000000
   36       -2.061906   1.000000
   37       -2.053197   1.000000
   38       -1.818757   1.000164
   39       -1.792484   1.000326
   40       -1.492891   1.035190
   41       -1.448844   1.029376
   42       -1.448844   1.029376
   43       -1.245686   0.526771
   44       -1.211273   0.382464
   45       -0.795084  -0.003668
   46       -0.356501  -0.000000
   47       -0.356501  -0.000000
   48       -0.289592  -0.000000
   49        0.024996  -0.000000
   50        0.402087  -0.000000
   51        1.337202  -0.000000
   52        1.337202  -0.000000
