 running on    4 total cores
 distrk:  each k-point on    4 cores,    1 groups
 distr:  one band on    1 cores,    4 groups
 using from now: INCAR     
 vasp.5.4.4.18Apr17-6-g9f103f2a35 (build Dec 28 2021 15:39:15) complex           
 POSCAR found type information on POSCAR  Pd Mo
 POSCAR found :  2 types and       9 ions
 scaLAPACK will be used
 LDA part: xc-table for Ceperly-Alder, standard interpolation

 ----------------------------------------------------------------------------- 
|                                                                             |
|           W    W    AA    RRRRR   N    N  II  N    N   GGGG   !!!           |
|           W    W   A  A   R    R  NN   N  II  NN   N  G    G  !!!           |
|           W    W  A    A  R    R  N N  N  II  N N  N  G       !!!           |
|           W WW W  AAAAAA  RRRRR   N  N N  II  N  N N  G  GGG   !            |
|           WW  WW  A    A  R   R   N   NN  II  N   NN  G    G                |
|           W    W  A    A  R    R  N    N  II  N    N   GGGG   !!!           |
|                                                                             |
|      The distance between some ions is very small                           |
|      please check the nearest neigbor list in the OUTCAR file               |
|          I HOPE YOU KNOW, WHAT YOU ARE  DOING                               |
|                                                                             |
 ----------------------------------------------------------------------------- 

 found WAVECAR, reading the header
 POSCAR, INCAR and KPOINTS ok, starting setup
 FFT: planning ...
 reading WAVECAR
 the WAVECAR file was read successfully
 initial charge from wavefunction
 entering main loop
       N       E                     dE             d eps       ncg     rms          rms(c)
DAV:   1    -0.238520172377E+02   -0.23852E+02   -0.35510E-02   132   0.572E-01    0.137E+00
DAV:   2    -0.242494007843E+02   -0.39738E+00   -0.96841E-01   132   0.446E+00    0.875E+00
DAV:   3    -0.238599260486E+02    0.38947E+00   -0.28930E-01   124   0.363E+00    0.709E-01
DAV:   4    -0.238521267714E+02    0.77993E-02   -0.12132E-02   108   0.641E-01    0.170E+00
DAV:   5    -0.238470293259E+02    0.50974E-02   -0.15379E-03   116   0.308E-01    0.518E-01
DAV:   6    -0.238458628841E+02    0.11664E-02   -0.10036E-03   128   0.354E-01    0.660E-02
DAV:   7    -0.238461982407E+02   -0.33536E-03   -0.12726E-04    52   0.642E-02    0.193E-01
DAV:   8    -0.238461625609E+02    0.35680E-04   -0.14538E-05    52   0.221E-02
   1 F= -.23846163E+02 E0= -.23834439E+02  d E =-.351699E-01
 writing wavefunctions
