unknown system                          
           1
     5.499742    0.000000    0.000000
     0.000000    5.499742    0.000000
     0.000000    0.000000   18.000000
   Pd   Mo
   8   1
Direct configuration=     1
   0.25000000  0.25000000  0.43257862
   0.75000000  0.25000000  0.43257862
   0.25000000  0.75000000  0.43257862
   0.75000000  0.75000000  0.43257862
   0.00000000  0.00000000  0.54060377
   0.50000000  0.00000000  0.54060377
   0.00000000  0.50000000  0.54060377
   0.50000000  0.50000000  0.54060377
   0.00000000  0.00000000  0.60727043
