 Entering Link 1 = d:\program files\g09w\l1.exe PID=     16692.
  
 Copyright (c) 1988,1990,1992,1993,1995,1998,2003,2009,2010,
            Gaussian, Inc.  All Rights Reserved.
  
 This is part of the Gaussian(R) 09 program.  It is based on
 the Gaussian(R) 03 system (copyright 2003, Gaussian, Inc.),
 the Gaussian(R) 98 system (copyright 1998, Gaussian, Inc.),
 the Gaussian(R) 94 system (copyright 1995, Gaussian, Inc.),
 the Gaussian 92(TM) system (copyright 1992, Gaussian, Inc.),
 the Gaussian 90(TM) system (copyright 1990, Gaussian, Inc.),
 the Gaussian 88(TM) system (copyright 1988, Gaussian, Inc.),
 the Gaussian 86(TM) system (copyright 1986, Carnegie Mellon
 University), and the Gaussian 82(TM) system (copyright 1983,
 Carnegie Mellon University). Gaussian is a federally registered
 trademark of Gaussian, Inc.
  
 This software contains proprietary and confidential information,
 including trade secrets, belonging to Gaussian, Inc.
  
 This software is provided under written license and may be
 used, copied, transmitted, or stored only in accord with that
 written license.
  
 The following legend is applicable only to US Government
 contracts under FAR:
  
                    RESTRICTED RIGHTS LEGEND
  
 Use, reproduction and disclosure by the US Government is
 subject to restrictions as set forth in subparagraphs (a)
 and (c) of the Commercial Computer Software - Restricted
 Rights clause in FAR 52.227-19.
  
 Gaussian, Inc.
 340 Quinnipiac St., Bldg. 40, Wallingford CT 06492
  
  
 ---------------------------------------------------------------
 Warning -- This program may not be used in any manner that
 competes with the business of Gaussian, Inc. or will provide
 assistance to any competitor of Gaussian, Inc.  The licensee
 of this program is prohibited from giving any competitor of
 Gaussian, Inc. access to this program.  By using this program,
 the user acknowledges that Gaussian, Inc. is engaged in the
 business of creating and licensing software in the field of
 computational chemistry and represents and warrants to the
 licensee that it is not a competitor of Gaussian, Inc. and that
 it will not use this program in any manner prohibited above.
 ---------------------------------------------------------------
  

 Cite this work as:
 Gaussian 09, Revision B.01,
 M. J. Frisch, G. W. Trucks, H. B. Schlegel, G. E. Scuseria, 
 M. A. Robb, J. R. Cheeseman, G. Scalmani, V. Barone, B. Mennucci, 
 G. A. Petersson, H. Nakatsuji, M. Caricato, X. Li, H. P. Hratchian, 
 A. F. Izmaylov, J. Bloino, G. Zheng, J. L. Sonnenberg, M. Hada, 
 M. Ehara, K. Toyota, R. Fukuda, J. Hasegawa, M. Ishida, T. Nakajima, 
 Y. Honda, O. Kitao, H. Nakai, T. Vreven, J. A. Montgomery, Jr., 
 J. E. Peralta, F. Ogliaro, M. Bearpark, J. J. Heyd, E. Brothers, 
 K. N. Kudin, V. N. Staroverov, T. Keith, R. Kobayashi, J. Normand, 
 K. Raghavachari, A. Rendell, J. C. Burant, S. S. Iyengar, J. Tomasi, 
 M. Cossi, N. Rega, J. M. Millam, M. Klene, J. E. Knox, J. B. Cross, 
 V. Bakken, C. Adamo, J. Jaramillo, R. Gomperts, R. E. Stratmann, 
 O. Yazyev, A. J. Austin, R. Cammi, C. Pomelli, J. W. Ochterski, 
 R. L. Martin, K. Morokuma, V. G. Zakrzewski, G. A. Voth, 
 P. Salvador, J. J. Dannenberg, S. Dapprich, A. D. Daniels, 
 O. Farkas, J. B. Foresman, J. V. Ortiz, J. Cioslowski, 
 and D. J. Fox, Gaussian, Inc., Wallingford CT, 2010.
 
 ******************************************
 Gaussian 09:  IA32W-G09RevB.01 12-Aug-2010
                03-Jun-2018 
 ******************************************
 %chk=G:\gaussian-input\benzene.chk
 ----------------------------------
 # b3lyp/6-31g(d) geom=connectivity
 ----------------------------------
 1/38=1,57=2/1;
 2/12=2,17=6,18=5,40=1/2;
 3/5=1,6=6,7=1,11=2,16=1,25=1,30=1,74=-5/1,2,3;
 4//1;
 5/5=2,38=5/2;
 6/7=2,8=2,9=2,10=2,28=1/1;
 99/5=1,9=1/99;
 -------------------
 Title Card Required
 -------------------
 Symbolic Z-matrix:
 Charge =  0 Multiplicity = 1
 C                    -0.1589    0.61441   0. 
 C                     1.23626   0.61441   0. 
 C                     1.9338    1.82216   0. 
 C                     1.23615   3.03067  -0.0012 
 C                    -0.15868   3.03059  -0.00168 
 C                    -0.85628   1.82238  -0.00068 
 H                    -0.70866  -0.33791   0.00045 
 H                     1.78577  -0.33811   0.00132 
 H                     3.03348   1.82224   0.00063 
 H                     1.78635   3.98281  -0.00126 
 H                    -0.7088    3.98287  -0.00263 
 H                    -1.95588   1.82257  -0.00086 
 
                          Input orientation:                          
 ---------------------------------------------------------------------
 Center     Atomic      Atomic             Coordinates (Angstroms)
 Number     Number       Type             X           Y           Z
 ---------------------------------------------------------------------
      1          6           0       -0.158898    0.614407    0.000000
      2          6           0        1.236262    0.614407    0.000000
      3          6           0        1.933800    1.822158    0.000000
      4          6           0        1.236146    3.030667   -0.001199
      5          6           0       -0.158679    3.030589   -0.001678
      6          6           0       -0.856280    1.822383   -0.000682
      7          1           0       -0.708657   -0.337910    0.000450
      8          1           0        1.785770   -0.338106    0.001315
      9          1           0        3.033480    1.822238    0.000634
     10          1           0        1.786346    3.982810   -0.001258
     11          1           0       -0.708801    3.982870   -0.002631
     12          1           0       -1.955884    1.822566   -0.000862
 ---------------------------------------------------------------------
                    Distance matrix (angstroms):
                    1          2          3          4          5
     1  C    0.000000
     2  C    1.395160   0.000000
     3  C    2.416205   1.394712   0.000000
     4  C    2.790065   2.416260   1.395427   0.000000
     5  C    2.416183   2.789946   2.416356   1.394825   0.000000
     6  C    1.394829   2.416183   2.790080   2.416236   1.395138
     7  H    1.099610   2.165553   3.412986   3.889675   3.413102
     8  H    2.165414   1.099655   2.165330   3.413316   3.889601
     9  H    3.413229   2.165375   1.099680   2.165806   3.413209
    10  H    3.889745   3.413024   2.165678   1.099680   2.165606
    11  H    3.413055   3.889707   3.413506   2.165528   1.099761
    12  H    2.165365   3.413128   3.889684   3.412999   2.165471
                    6          7          8          9         10
     6  C    0.000000
     7  H    2.165331   0.000000
     8  H    3.412938   2.494427   0.000000
     9  H    3.889760   4.320860   2.494768   0.000000
    10  H    3.413344   4.989355   4.320917   2.494678   0.000000
    11  H    2.165516   4.320781   4.989362   4.321228   2.495147
    12  H    1.099604   2.494641   4.320704   4.989364   4.320988
                   11         12
    11  H    0.000000
    12  H    2.494420   0.000000
 Stoichiometry    C6H6
 Framework group  C1[X(C6H6)]
 Deg. of freedom    30
 Full point group                 C1      NOp   1
 Largest Abelian subgroup         C1      NOp   1
 Largest concise Abelian subgroup C1      NOp   1
                         Standard orientation:                         
 ---------------------------------------------------------------------
 Center     Atomic      Atomic             Coordinates (Angstroms)
 Number     Number       Type             X           Y           Z
 ---------------------------------------------------------------------
      1          6           0       -0.176717   -1.383752    0.000564
      2          6           0        1.110106   -0.844719    0.000564
      3          6           0        1.286853    0.538749    0.000564
      4          6           0        0.176454    1.383870   -0.000635
      5          6           0       -1.110030    0.844894   -0.001114
      6          6           0       -1.286660   -0.539018   -0.000118
      7          1           0       -0.315850   -2.474525    0.001014
      8          1           0        1.984956   -1.510960    0.001879
      9          1           0        2.301110    0.963695    0.001198
     10          1           0        0.316060    2.474652   -0.000694
     11          1           0       -1.985357    1.510684   -0.002067
     12          1           0       -2.300948   -0.963691   -0.000298
 ---------------------------------------------------------------------
 Rotational constants (GHZ):      5.6865650      5.6862639      2.8432074
 Standard basis: 6-31G(d) (6D, 7F)
 There are   102 symmetry adapted basis functions of A   symmetry.
 Integral buffers will be    262144 words long.
 Raffenetti 2 integral format.
 Two-electron integral symmetry is turned on.
   102 basis functions,   192 primitive gaussians,   102 cartesian basis functions
    21 alpha electrons       21 beta electrons
       nuclear repulsion energy       203.0307482098 Hartrees.
 NAtoms=   12 NActive=   12 NUniq=   12 SFac= 1.00D+00 NAtFMM=   50 NAOKFM=F Big=F
 One-electron integrals computed using PRISM.
 NBasis=   102 RedAO= T  NBF=   102
 NBsUse=   102 1.00D-06 NBFU=   102
 Harris functional with IExCor=  402 diagonalized for initial guess.
 ExpMin= 1.61D-01 ExpMax= 3.05D+03 ExpMxC= 4.57D+02 IAcc=1 IRadAn=         1 AccDes= 0.00D+00
 HarFok:  IExCor=  402 AccDes= 0.00D+00 IRadAn=         1 IDoV= 1
 ScaDFX=  1.000000  1.000000  1.000000  1.000000
 FoFCou: FMM=F IPFlag=           0 FMFlag=      100000 FMFlg1=           0
         NFxFlg=           0 DoJE=T BraDBF=F KetDBF=T FulRan=T
         Omega=  0.000000  0.000000  1.000000  0.000000  0.000000 ICntrl=     500 IOpCl=  0
         NMat0=    1 NMatS0=    1 NMatT0=    0 NMatD0=    1 NMtDS0=    0 NMtDT0=    0
         I1Cent=           4 NGrid=           0.
 Petite list used in FoFCou.
 Initial guess orbital symmetries:
       Occupied  (A) (A) (A) (A) (A) (A) (A) (A) (A) (A) (A) (A)
                 (A) (A) (A) (A) (A) (A) (A) (A) (A)
       Virtual   (A) (A) (A) (A) (A) (A) (A) (A) (A) (A) (A) (A)
                 (A) (A) (A) (A) (A) (A) (A) (A) (A) (A) (A) (A)
                 (A) (A) (A) (A) (A) (A) (A) (A) (A) (A) (A) (A)
                 (A) (A) (A) (A) (A) (A) (A) (A) (A) (A) (A) (A)
                 (A) (A) (A) (A) (A) (A) (A) (A) (A) (A) (A) (A)
                 (A) (A) (A) (A) (A) (A) (A) (A) (A) (A) (A) (A)
                 (A) (A) (A) (A) (A) (A) (A) (A) (A)
 The electronic state of the initial guess is 1-A.
 Requested convergence on RMS density matrix=1.00D-08 within 128 cycles.
 Requested convergence on MAX density matrix=1.00D-06.
 Requested convergence on             energy=1.00D-06.
 No special actions if energy rises.
 Keep R1 ints in memory in canonical form, NReq=14866115.
 Integral accuracy reduced to 1.0D-05 until final iterations.
 Initial convergence to 1.0D-05 achieved.  Increase integral accuracy.
 SCF Done:  E(RB3LYP) =  -232.248028177     A.U. after   11 cycles
             Convg  =    0.5989D-08             -V/T =  2.0104

 **********************************************************************

            Population analysis using the SCF density.

 **********************************************************************

 Orbital symmetries:
       Occupied  (A) (A) (A) (A) (A) (A) (A) (A) (A) (A) (A) (A)
                 (A) (A) (A) (A) (A) (A) (A) (A) (A)
       Virtual   (A) (A) (A) (A) (A) (A) (A) (A) (A) (A) (A) (A)
                 (A) (A) (A) (A) (A) (A) (A) (A) (A) (A) (A) (A)
                 (A) (A) (A) (A) (A) (A) (A) (A) (A) (A) (A) (A)
                 (A) (A) (A) (A) (A) (A) (A) (A) (A) (A) (A) (A)
                 (A) (A) (A) (A) (A) (A) (A) (A) (A) (A) (A) (A)
                 (A) (A) (A) (A) (A) (A) (A) (A) (A) (A) (A) (A)
                 (A) (A) (A) (A) (A) (A) (A) (A) (A)
 The electronic state is 1-A.
 Alpha  occ. eigenvalues --  -10.18916 -10.18890 -10.18889 -10.18834 -10.18833
 Alpha  occ. eigenvalues --  -10.18807  -0.84734  -0.73965  -0.73961  -0.59620
 Alpha  occ. eigenvalues --   -0.59616  -0.51674  -0.45546  -0.43909  -0.41601
 Alpha  occ. eigenvalues --   -0.41600  -0.36043  -0.33938  -0.33930  -0.24696
 Alpha  occ. eigenvalues --   -0.24692
 Alpha virt. eigenvalues --    0.00366   0.00371   0.08621   0.14101   0.14103
 Alpha virt. eigenvalues --    0.16461   0.17977   0.17978   0.18666   0.30208
 Alpha virt. eigenvalues --    0.30214   0.32015   0.32023   0.47414   0.52665
 Alpha virt. eigenvalues --    0.54911   0.55115   0.56543   0.59315   0.60128
 Alpha virt. eigenvalues --    0.60129   0.60188   0.60197   0.62582   0.62585
 Alpha virt. eigenvalues --    0.66708   0.66710   0.74449   0.83116   0.83118
 Alpha virt. eigenvalues --    0.83648   0.85645   0.85650   0.93204   0.93973
 Alpha virt. eigenvalues --    0.93980   0.95802   1.08478   1.08482   1.14325
 Alpha virt. eigenvalues --    1.14334   1.20033   1.26129   1.39622   1.43080
 Alpha virt. eigenvalues --    1.43087   1.48730   1.48736   1.51620   1.51621
 Alpha virt. eigenvalues --    1.75300   1.79146   1.84549   1.88955   1.95938
 Alpha virt. eigenvalues --    1.95943   2.06713   2.06715   2.15312   2.15321
 Alpha virt. eigenvalues --    2.15603   2.15615   2.31056   2.31079   2.32444
 Alpha virt. eigenvalues --    2.54131   2.54138   2.65970   2.70173   2.70186
 Alpha virt. eigenvalues --    2.72417   2.72431   2.75514   3.01963   3.40532
 Alpha virt. eigenvalues --    4.08372   4.11526   4.11533   4.32793   4.32796
 Alpha virt. eigenvalues --    4.66418
          Condensed to atoms (all electrons):
              1          2          3          4          5          6
     1  C    4.848509   0.552329  -0.032910  -0.040751  -0.032916   0.552655
     2  C    0.552329   4.848352   0.552668  -0.032909  -0.040753  -0.032905
     3  C   -0.032910   0.552668   4.848608   0.552208  -0.032906  -0.040751
     4  C   -0.040751  -0.032909   0.552208   4.848684   0.552644  -0.032906
     5  C   -0.032916  -0.040753  -0.032906   0.552644   4.848423   0.552301
     6  C    0.552655  -0.032905  -0.040751  -0.032906   0.552301   4.848498
     7  H    0.357424  -0.042764   0.004655   0.000569   0.004656  -0.042775
     8  H   -0.042777   0.357409  -0.042784   0.004654   0.000570   0.004655
     9  H    0.004652  -0.042758   0.357420  -0.042753   0.004650   0.000570
    10  H    0.000570   0.004652  -0.042757   0.357413  -0.042748   0.004651
    11  H    0.004653   0.000570   0.004650  -0.042768   0.357401  -0.042770
    12  H   -0.042770   0.004655   0.000570   0.004653  -0.042767   0.357426
              7          8          9         10         11         12
     1  C    0.357424  -0.042777   0.004652   0.000570   0.004653  -0.042770
     2  C   -0.042764   0.357409  -0.042758   0.004652   0.000570   0.004655
     3  C    0.004655  -0.042784   0.357420  -0.042757   0.004650   0.000570
     4  C    0.000569   0.004654  -0.042753   0.357413  -0.042768   0.004653
     5  C    0.004656   0.000570   0.004650  -0.042748   0.357401  -0.042767
     6  C   -0.042775   0.004655   0.000570   0.004651  -0.042770   0.357426
     7  H    0.601423  -0.005745  -0.000174   0.000015  -0.000174  -0.005748
     8  H   -0.005745   0.601477  -0.005746  -0.000174   0.000015  -0.000174
     9  H   -0.000174  -0.005746   0.601389  -0.005737  -0.000174   0.000015
    10  H    0.000015  -0.000174  -0.005737   0.601383  -0.005741  -0.000174
    11  H   -0.000174   0.000015  -0.000174  -0.005741   0.601453  -0.005744
    12  H   -0.005748  -0.000174   0.000015  -0.000174  -0.005744   0.601421
 Mulliken atomic charges:
              1
     1  C   -0.128669
     2  C   -0.128546
     3  C   -0.128669
     4  C   -0.128737
     5  C   -0.128555
     6  C   -0.128649
     7  H    0.128638
     8  H    0.128623
     9  H    0.128648
    10  H    0.128649
    11  H    0.128629
    12  H    0.128638
 Sum of Mulliken atomic charges =   0.00000
 Mulliken charges with hydrogens summed into heavy atoms:
              1
     1  C   -0.000030
     2  C    0.000077
     3  C   -0.000021
     4  C   -0.000089
     5  C    0.000075
     6  C   -0.000012
 Sum of Mulliken charges with hydrogens summed into heavy atoms =   0.00000
 Electronic spatial extent (au):  <R**2>=            459.0567
 Charge=              0.0000 electrons
 Dipole moment (field-independent basis, Debye):
    X=              0.0000    Y=             -0.0002    Z=              0.0006  Tot=              0.0007
 Quadrupole moment (field-independent basis, Debye-Ang):
   XX=            -31.4638   YY=            -31.4643   ZZ=            -38.6595
   XY=              0.0010   XZ=              0.0050   YZ=             -0.0034
 Traceless Quadrupole moment (field-independent basis, Debye-Ang):
   XX=              2.3987   YY=              2.3982   ZZ=             -4.7969
   XY=              0.0010   XZ=              0.0050   YZ=             -0.0034
 Octapole moment (field-independent basis, Debye-Ang**2):
  XXX=             -0.0040  YYY=             -0.0029  ZZZ=              0.0008  XYY=              0.0043
  XXY=              0.0018  XXZ=              0.0033  XZZ=             -0.0002  YZZ=             -0.0011
  YYZ=              0.0024  XYZ=              0.0014
 Hexadecapole moment (field-independent basis, Debye-Ang**3):
 XXXX=           -271.1133 YYYY=           -271.1012 ZZZZ=            -40.1141 XXXY=              0.0046
 XXXZ=             -0.0352 YYYX=              0.0063 YYYZ=              0.0438 ZZZX=             -0.0669
 ZZZY=              0.0660 XXYY=            -90.3712 XXZZ=            -60.6726 YYZZ=            -60.6708
 XXYZ=              0.0112 YYXZ=             -0.0103 ZZXY=              0.0002
 N-N= 2.030307482098D+02 E-N=-9.433324192960D+02  KE= 2.298475309640D+02
 1|1|UNPC-DESKTOP-A2B3DQ3|SP|RB3LYP|6-31G(d)|C6H6|LIUGAOYONG|03-Jun-201
 8|0||# b3lyp/6-31g(d) geom=connectivity||Title Card Required||0,1|C,0,
 -0.1588983,0.61440677,0.|C,0,1.2362617,0.61440677,0.|C,0,1.9337997,1.8
 2215777,0.|C,0,1.2361457,3.03066677,-0.001199|C,0,-0.1586793,3.0305887
 7,-0.001678|C,0,-0.8562803,1.82238277,-0.000682|H,0,-0.7086573,-0.3379
 1023,0.00045|H,0,1.7857697,-0.33810623,0.001315|H,0,3.0334797,1.822237
 77,0.000634|H,0,1.7863457,3.98280977,-0.001258|H,0,-0.7088013,3.982869
 77,-0.002631|H,0,-1.9558843,1.82256577,-0.000862||Version=IA32W-G09Rev
 B.01|State=1-A|HF=-232.2480282|RMSD=5.989e-009|Dipole=-0.0000267,-0.00
 00638,0.0002504|Quadrupole=1.7838696,1.7825408,-3.5664104,0.0004005,0.
 0024206,-0.0037512|PG=C01 [X(C6H6)]||@


 I LOVE THOSE WHO LONG FOR THE IMPOSSIBLE.

                                 -- GOETHE
 Job cpu time:  0 days  0 hours  0 minutes 20.0 seconds.
 File lengths (MBytes):  RWF=      9 Int=      0 D2E=      0 Chk=      1 Scr=      1
 Normal termination of Gaussian 09 at Sun Jun 03 21:35:45 2018.
