 Entering Gaussian System, Link 0=g09
 Input=toh-pai-qin.gjf
 Output=toh-pai-qin.log
 Initial command:
 /usr/local/g09/l1.exe "/mnt/g/opt/g09-scr/Gau-604.inp" -scrdir="/mnt/g/opt/g09-scr/"
 Entering Link 1 = /usr/local/g09/l1.exe PID=       606.
  
 Copyright (c) 1988,1990,1992,1993,1995,1998,2003,2009,2015,
            Gaussian, Inc.  All Rights Reserved.
  
 This is part of the Gaussian(R) 09 program.  It is based on
 the Gaussian(R) 03 system (copyright 2003, Gaussian, Inc.),
 the Gaussian(R) 98 system (copyright 1998, Gaussian, Inc.),
 the Gaussian(R) 94 system (copyright 1995, Gaussian, Inc.),
 the Gaussian 92(TM) system (copyright 1992, Gaussian, Inc.),
 the Gaussian 90(TM) system (copyright 1990, Gaussian, Inc.),
 the Gaussian 88(TM) system (copyright 1988, Gaussian, Inc.),
 the Gaussian 86(TM) system (copyright 1986, Carnegie Mellon
 University), and the Gaussian 82(TM) system (copyright 1983,
 Carnegie Mellon University). Gaussian is a federally registered
 trademark of Gaussian, Inc.
  
 This software contains proprietary and confidential information,
 including trade secrets, belonging to Gaussian, Inc.
  
 This software is provided under written license and may be
 used, copied, transmitted, or stored only in accord with that
 written license.
  
 The following legend is applicable only to US Government
 contracts under FAR:
  
                    RESTRICTED RIGHTS LEGEND
  
 Use, reproduction and disclosure by the US Government is
 subject to restrictions as set forth in subparagraphs (a)
 and (c) of the Commercial Computer Software - Restricted
 Rights clause in FAR 52.227-19.
  
 Gaussian, Inc.
 340 Quinnipiac St., Bldg. 40, Wallingford CT 06492
  
  
 ---------------------------------------------------------------
 Warning -- This program may not be used in any manner that
 competes with the business of Gaussian, Inc. or will provide
 assistance to any competitor of Gaussian, Inc.  The licensee
 of this program is prohibited from giving any competitor of
 Gaussian, Inc. access to this program.  By using this program,
 the user acknowledges that Gaussian, Inc. is engaged in the
 business of creating and licensing software in the field of
 computational chemistry and represents and warrants to the
 licensee that it is not a competitor of Gaussian, Inc. and that
 it will not use this program in any manner prohibited above.
 ---------------------------------------------------------------
  

 Cite this work as:
 Gaussian 09, Revision E.01,
 M. J. Frisch, G. W. Trucks, H. B. Schlegel, G. E. Scuseria, 
 M. A. Robb, J. R. Cheeseman, G. Scalmani, V. Barone, B. Mennucci, 
 G. A. Petersson, H. Nakatsuji, M. Caricato, X. Li, H. P. Hratchian, 
 A. F. Izmaylov, J. Bloino, G. Zheng, J. L. Sonnenberg, M. Hada, 
 M. Ehara, K. Toyota, R. Fukuda, J. Hasegawa, M. Ishida, T. Nakajima, 
 Y. Honda, O. Kitao, H. Nakai, T. Vreven, J. A. Montgomery, Jr., 
 J. E. Peralta, F. Ogliaro, M. Bearpark, J. J. Heyd, E. Brothers, 
 K. N. Kudin, V. N. Staroverov, T. Keith, R. Kobayashi, J. Normand, 
 K. Raghavachari, A. Rendell, J. C. Burant, S. S. Iyengar, J. Tomasi, 
 M. Cossi, N. Rega, J. M. Millam, M. Klene, J. E. Knox, J. B. Cross, 
 V. Bakken, C. Adamo, J. Jaramillo, R. Gomperts, R. E. Stratmann, 
 O. Yazyev, A. J. Austin, R. Cammi, C. Pomelli, J. W. Ochterski, 
 R. L. Martin, K. Morokuma, V. G. Zakrzewski, G. A. Voth, 
 P. Salvador, J. J. Dannenberg, S. Dapprich, A. D. Daniels, 
 O. Farkas, J. B. Foresman, J. V. Ortiz, J. Cioslowski, 
 and D. J. Fox, Gaussian, Inc., Wallingford CT, 2013.
 
 ******************************************
 Gaussian 09:  ES64L-G09RevE.01 30-Nov-2015
                12-Jun-2018 
 ******************************************
 %chk=toh-pai-qin.chk
 %nproc=4
 Will use up to    4 processors via shared memory.
 ---------------
 # hf/6-31g* opt
 ---------------
 1/18=20,19=15,38=1/1,3;
 2/9=110,12=2,17=6,18=5,40=1/2;
 3/5=1,6=6,7=1,11=9,16=1,25=1,30=1,71=1/1,2,3;
 4//1;
 5/5=2,38=5/2;
 6/7=2,8=2,9=2,10=2,28=1/1;
 7//1,2,3,16;
 1/18=20,19=15/3(2);
 2/9=110/2;
 99//99;
 2/9=110/2;
 3/5=1,6=6,7=1,11=9,16=1,25=1,30=1,71=1/1,2,3;
 4/5=5,16=3,69=1/1;
 5/5=2,38=5/2;
 7//1,2,3,16;
 1/18=20,19=15/3(-5);
 2/9=110/2;
 6/7=2,8=2,9=2,10=2,19=2,28=1/1;
 99/9=1/99;
 -------------------
 Title Card Required
 -------------------
 Symbolic Z-matrix:
 Charge =  0 Multiplicity = 1
 C                     1.48789  -0.02173  -0.10283 
 C                     2.18698   1.19284  -0.10826 
 C                     0.09812   2.39521  -0.10248 
 C                    -0.60098   1.18065  -0.09705 
 H                     2.79422   1.21465  -0.98899 
 H                    -1.21526   1.15503  -0.97278 
 N                     1.43222   2.29726  -0.10762 
 N                     0.15379   0.07622  -0.09769 
 H                     1.77062  -0.56367  -0.98104 
 H                    -0.19166   2.93335  -0.98073 
 O                     3.00794   1.22707   1.06211 
 H                     3.93277   1.23403   0.80473 
 O                     1.87516  -0.74093   1.07091 
 H                     2.03663  -1.65989   0.84496 
 O                    -1.41252   1.15148   1.08 
 H                    -2.33721   1.22819   0.83368 
 O                    -0.27974   3.11949   1.0712 
 H                    -0.55734   4.0051    0.82576 
 N                     2.13061   3.51061  -0.11304 
 O                     2.42373   4.00465   0.93978 
 O                     2.4065    4.00512  -1.17028 
 N                    -0.54461  -1.13713  -0.09226 
 O                    -0.83377  -1.62401   0.96497 
 O                    -0.82445  -1.63879  -1.14509 
 

 GradGradGradGradGradGradGradGradGradGradGradGradGradGradGradGradGradGrad
 Berny optimization.
 Initialization pass.
                           ----------------------------
                           !    Initial Parameters    !
                           ! (Angstroms and Degrees)  !
 --------------------------                            --------------------------
 ! Name  Definition              Value          Derivative Info.                !
 --------------------------------------------------------------------------------
 ! R1    R(1,2)                  1.4014         estimate D2E/DX2                !
 ! R2    R(1,8)                  1.3377         estimate D2E/DX2                !
 ! R3    R(1,9)                  1.07           estimate D2E/DX2                !
 ! R4    R(1,13)                 1.43           estimate D2E/DX2                !
 ! R5    R(2,5)                  1.07           estimate D2E/DX2                !
 ! R6    R(2,7)                  1.3377         estimate D2E/DX2                !
 ! R7    R(2,11)                 1.43           estimate D2E/DX2                !
 ! R8    R(3,4)                  1.4014         estimate D2E/DX2                !
 ! R9    R(3,7)                  1.3377         estimate D2E/DX2                !
 ! R10   R(3,10)                 1.07           estimate D2E/DX2                !
 ! R11   R(3,17)                 1.43           estimate D2E/DX2                !
 ! R12   R(4,6)                  1.07           estimate D2E/DX2                !
 ! R13   R(4,8)                  1.3377         estimate D2E/DX2                !
 ! R14   R(4,15)                 1.43           estimate D2E/DX2                !
 ! R15   R(7,19)                 1.4            estimate D2E/DX2                !
 ! R16   R(8,22)                 1.4            estimate D2E/DX2                !
 ! R17   R(11,12)                0.96           estimate D2E/DX2                !
 ! R18   R(13,14)                0.96           estimate D2E/DX2                !
 ! R19   R(15,16)                0.96           estimate D2E/DX2                !
 ! R20   R(17,18)                0.96           estimate D2E/DX2                !
 ! R21   R(19,20)                1.1993         estimate D2E/DX2                !
 ! R22   R(19,21)                1.1993         estimate D2E/DX2                !
 ! R23   R(22,23)                1.1993         estimate D2E/DX2                !
 ! R24   R(22,24)                1.1993         estimate D2E/DX2                !
 ! A1    A(2,1,8)              115.7263         estimate D2E/DX2                !
 ! A2    A(2,1,9)              107.6961         estimate D2E/DX2                !
 ! A3    A(2,1,13)             107.6961         estimate D2E/DX2                !
 ! A4    A(8,1,9)              107.6838         estimate D2E/DX2                !
 ! A5    A(8,1,13)             107.6838         estimate D2E/DX2                !
 ! A6    A(9,1,13)             110.3269         estimate D2E/DX2                !
 ! A7    A(1,2,5)              107.6961         estimate D2E/DX2                !
 ! A8    A(1,2,7)              115.7263         estimate D2E/DX2                !
 ! A9    A(1,2,11)             107.6961         estimate D2E/DX2                !
 ! A10   A(5,2,7)              107.6838         estimate D2E/DX2                !
 ! A11   A(5,2,11)             110.3269         estimate D2E/DX2                !
 ! A12   A(7,2,11)             107.6838         estimate D2E/DX2                !
 ! A13   A(4,3,7)              115.7263         estimate D2E/DX2                !
 ! A14   A(4,3,10)             107.6961         estimate D2E/DX2                !
 ! A15   A(4,3,17)             107.6961         estimate D2E/DX2                !
 ! A16   A(7,3,10)             107.6838         estimate D2E/DX2                !
 ! A17   A(7,3,17)             107.6838         estimate D2E/DX2                !
 ! A18   A(10,3,17)            110.3269         estimate D2E/DX2                !
 ! A19   A(3,4,6)              107.6961         estimate D2E/DX2                !
 ! A20   A(3,4,8)              115.7263         estimate D2E/DX2                !
 ! A21   A(3,4,15)             107.6961         estimate D2E/DX2                !
 ! A22   A(6,4,8)              107.6838         estimate D2E/DX2                !
 ! A23   A(6,4,15)             110.3269         estimate D2E/DX2                !
 ! A24   A(8,4,15)             107.6838         estimate D2E/DX2                !
 ! A25   A(2,7,3)              128.5473         estimate D2E/DX2                !
 ! A26   A(2,7,19)             115.7263         estimate D2E/DX2                !
 ! A27   A(3,7,19)             115.7263         estimate D2E/DX2                !
 ! A28   A(1,8,4)              128.5473         estimate D2E/DX2                !
 ! A29   A(1,8,22)             115.7263         estimate D2E/DX2                !
 ! A30   A(4,8,22)             115.7263         estimate D2E/DX2                !
 ! A31   A(2,11,12)            109.5            estimate D2E/DX2                !
 ! A32   A(1,13,14)            109.5            estimate D2E/DX2                !
 ! A33   A(4,15,16)            109.5            estimate D2E/DX2                !
 ! A34   A(3,17,18)            109.5            estimate D2E/DX2                !
 ! A35   A(7,19,20)            118.3934         estimate D2E/DX2                !
 ! A36   A(7,19,21)            118.3927         estimate D2E/DX2                !
 ! A37   A(20,19,21)           123.2139         estimate D2E/DX2                !
 ! A38   A(8,22,23)            118.3934         estimate D2E/DX2                !
 ! A39   A(8,22,24)            118.3927         estimate D2E/DX2                !
 ! A40   A(23,22,24)           123.2139         estimate D2E/DX2                !
 ! D1    D(8,1,2,5)           -120.5087         estimate D2E/DX2                !
 ! D2    D(8,1,2,7)              0.0            estimate D2E/DX2                !
 ! D3    D(8,1,2,11)           120.5087         estimate D2E/DX2                !
 ! D4    D(9,1,2,5)              0.0            estimate D2E/DX2                !
 ! D5    D(9,1,2,7)            120.5087         estimate D2E/DX2                !
 ! D6    D(9,1,2,11)          -118.9825         estimate D2E/DX2                !
 ! D7    D(13,1,2,5)           118.9825         estimate D2E/DX2                !
 ! D8    D(13,1,2,7)          -120.5087         estimate D2E/DX2                !
 ! D9    D(13,1,2,11)            0.0            estimate D2E/DX2                !
 ! D10   D(2,1,8,4)              0.0            estimate D2E/DX2                !
 ! D11   D(2,1,8,22)           180.0            estimate D2E/DX2                !
 ! D12   D(9,1,8,4)           -120.5154         estimate D2E/DX2                !
 ! D13   D(9,1,8,22)            59.4846         estimate D2E/DX2                !
 ! D14   D(13,1,8,4)           120.5154         estimate D2E/DX2                !
 ! D15   D(13,1,8,22)          -59.4846         estimate D2E/DX2                !
 ! D16   D(2,1,13,14)         -135.7564         estimate D2E/DX2                !
 ! D17   D(8,1,13,14)           98.7961         estimate D2E/DX2                !
 ! D18   D(9,1,13,14)          -18.4692         estimate D2E/DX2                !
 ! D19   D(1,2,7,3)              0.0            estimate D2E/DX2                !
 ! D20   D(1,2,7,19)           180.0            estimate D2E/DX2                !
 ! D21   D(5,2,7,3)            120.5154         estimate D2E/DX2                !
 ! D22   D(5,2,7,19)           -59.4846         estimate D2E/DX2                !
 ! D23   D(11,2,7,3)          -120.5154         estimate D2E/DX2                !
 ! D24   D(11,2,7,19)           59.4846         estimate D2E/DX2                !
 ! D25   D(1,2,11,12)          115.4872         estimate D2E/DX2                !
 ! D26   D(5,2,11,12)           -1.8            estimate D2E/DX2                !
 ! D27   D(7,2,11,12)         -119.0653         estimate D2E/DX2                !
 ! D28   D(7,3,4,6)           -120.5087         estimate D2E/DX2                !
 ! D29   D(7,3,4,8)              0.0            estimate D2E/DX2                !
 ! D30   D(7,3,4,15)           120.5087         estimate D2E/DX2                !
 ! D31   D(10,3,4,6)             0.0            estimate D2E/DX2                !
 ! D32   D(10,3,4,8)           120.5087         estimate D2E/DX2                !
 ! D33   D(10,3,4,15)         -118.9825         estimate D2E/DX2                !
 ! D34   D(17,3,4,6)           118.9825         estimate D2E/DX2                !
 ! D35   D(17,3,4,8)          -120.5087         estimate D2E/DX2                !
 ! D36   D(17,3,4,15)            0.0            estimate D2E/DX2                !
 ! D37   D(4,3,7,2)              0.0            estimate D2E/DX2                !
 ! D38   D(4,3,7,19)           180.0            estimate D2E/DX2                !
 ! D39   D(10,3,7,2)          -120.5154         estimate D2E/DX2                !
 ! D40   D(10,3,7,19)           59.4846         estimate D2E/DX2                !
 ! D41   D(17,3,7,2)           120.5154         estimate D2E/DX2                !
 ! D42   D(17,3,7,19)          -59.4846         estimate D2E/DX2                !
 ! D43   D(4,3,17,18)         -128.1541         estimate D2E/DX2                !
 ! D44   D(7,3,17,18)          106.3984         estimate D2E/DX2                !
 ! D45   D(10,3,17,18)         -10.8669         estimate D2E/DX2                !
 ! D46   D(3,4,8,1)              0.0            estimate D2E/DX2                !
 ! D47   D(3,4,8,22)           180.0            estimate D2E/DX2                !
 ! D48   D(6,4,8,1)            120.5154         estimate D2E/DX2                !
 ! D49   D(6,4,8,22)           -59.4846         estimate D2E/DX2                !
 ! D50   D(15,4,8,1)          -120.5154         estimate D2E/DX2                !
 ! D51   D(15,4,8,22)           59.4846         estimate D2E/DX2                !
 ! D52   D(3,4,15,16)          110.1118         estimate D2E/DX2                !
 ! D53   D(6,4,15,16)           -7.1754         estimate D2E/DX2                !
 ! D54   D(8,4,15,16)         -124.4406         estimate D2E/DX2                !
 ! D55   D(2,7,19,20)          -89.7254         estimate D2E/DX2                !
 ! D56   D(2,7,19,21)           90.2746         estimate D2E/DX2                !
 ! D57   D(3,7,19,20)           90.2746         estimate D2E/DX2                !
 ! D58   D(3,7,19,21)          -89.7254         estimate D2E/DX2                !
 ! D59   D(1,8,22,23)           90.5571         estimate D2E/DX2                !
 ! D60   D(1,8,22,24)          -89.443          estimate D2E/DX2                !
 ! D61   D(4,8,22,23)          -89.4429         estimate D2E/DX2                !
 ! D62   D(4,8,22,24)           90.557          estimate D2E/DX2                !
 --------------------------------------------------------------------------------
 Trust Radius=3.00D-01 FncErr=1.00D-07 GrdErr=1.00D-07
 Number of steps in this run=    136 maximum allowed number of steps=    144.
 GradGradGradGradGradGradGradGradGradGradGradGradGradGradGradGradGradGrad

                          Input orientation:                          
 ---------------------------------------------------------------------
 Center     Atomic      Atomic             Coordinates (Angstroms)
 Number     Number       Type             X           Y           Z
 ---------------------------------------------------------------------
      1          6           0        1.487889   -0.021725   -0.102827
      2          6           0        2.186985    1.192835   -0.108257
      3          6           0        0.098116    2.395206   -0.102479
      4          6           0       -0.600980    1.180645   -0.097050
      5          1           0        2.794221    1.214655   -0.988988
      6          1           0       -1.215261    1.155028   -0.972780
      7          7           0        1.432216    2.297265   -0.107618
      8          7           0        0.153789    0.076216   -0.097689
      9          1           0        1.770624   -0.563672   -0.981038
     10          1           0       -0.191663    2.933355   -0.980730
     11          8           0        3.007939    1.227071    1.062112
     12          1           0        3.932767    1.234030    0.804731
     13          8           0        1.875163   -0.740934    1.070909
     14          1           0        2.036632   -1.659888    0.844962
     15          8           0       -1.412521    1.151484    1.080002
     16          1           0       -2.337206    1.228192    0.833682
     17          8           0       -0.279745    3.119489    1.071205
     18          1           0       -0.557341    4.005095    0.825762
     19          7           0        2.130614    3.510612   -0.113042
     20          8           0        2.423732    4.004648    0.939778
     21          8           0        2.406498    4.005118   -1.170283
     22          7           0       -0.544609   -1.137131   -0.092265
     23          8           0       -0.833773   -1.624011    0.964972
     24          8           0       -0.824447   -1.638794   -1.145087
 ---------------------------------------------------------------------
                    Distance matrix (angstroms):
                    1          2          3          4          5
     1  C    0.000000
     2  C    1.401400   0.000000
     3  C    2.788014   2.410208   0.000000
     4  C    2.410208   2.788014   1.401400   0.000000
     5  H    2.005099   1.070000   3.073855   3.510570   0.000000
     6  H    3.073855   3.510570   2.005099   1.070000   4.009958
     7  N    2.319663   1.337700   1.337700   2.319663   1.950363
     8  N    1.337700   2.319663   2.319663   1.337700   3.010372
     9  H    1.070000   2.005099   3.510570   3.073855   2.051892
    10  H    3.510570   3.073855   1.070000   2.005099   3.445215
    11  O    2.286291   1.430000   3.344829   3.790793   2.062241
    12  H    2.894480   1.970533   4.108030   4.622870   2.124639
    13  O    1.430000   2.286291   3.790793   3.344829   2.985326
    14  H    1.970533   3.011521   4.593394   3.989112   3.492894
    15  O    3.344829   3.790793   2.286291   1.430000   4.688432
    16  H    4.131669   4.621341   2.858165   1.970533   5.445535
    17  O    3.790793   3.344829   1.430000   2.286291   4.161978
    18  H    4.610914   4.038876   1.970533   2.971701   4.723647
    19  N    3.590349   2.318467   2.318467   3.590349   2.545403
    20  O    4.263157   3.010103   3.014149   4.266015   3.411959
    21  O    4.266002   3.014137   3.010091   4.263144   2.823098
    22  N    2.318467   3.590349   3.590349   2.318467   4.181244
    23  O    3.016228   4.267484   4.261687   3.008019   5.003832
    24  O    3.008008   4.261674   4.267471   3.016216   4.610997
                    6          7          8          9         10
     6  H    0.000000
     7  N    3.010372   0.000000
     8  N    1.950363   2.562720   0.000000
     9  H    3.445215   3.010372   1.950363   0.000000
    10  H    2.051892   1.950363   3.010372   4.009958   0.000000
    11  O    4.688432   2.235282   3.288735   2.985326   4.161978
    12  H    5.446832   2.866288   4.054081   3.331001   4.804841
    13  O    4.161978   3.288735   2.235282   2.062241   4.688432
    14  H    4.669341   4.114825   2.729056   2.146329   5.421838
    15  O    2.062241   3.288735   2.235282   4.161978   2.985326
    16  H    2.127773   4.029578   2.898198   4.835106   3.286795
    17  O    2.985326   2.235282   3.288735   4.688432   2.062241
    18  H    3.433729   2.783203   4.098117   5.436688   2.132079
    19  N    4.181244   1.400000   3.962720   4.181244   2.545403
    20  O    5.002047   2.235017   4.654198   4.998563   3.417061
    21  O    4.612933   2.235005   4.654184   4.616707   2.816921
    22  N    2.545403   3.962720   1.400000   2.545403   4.181244
    23  O    3.409322   4.654198   2.235017   3.419673   4.996763
    24  O    2.826282   4.654184   2.235005   2.813750   4.618655
                   11         12         13         14         15
    11  O    0.000000
    12  H    0.960000   0.000000
    13  O    2.270749   2.864449   0.000000
    14  H    3.053706   3.460015   0.960000   0.000000
    15  O    4.421142   5.353007   3.793441   4.455975   0.000000
    16  H    5.350024   6.270042   4.655941   5.241335   0.960000
    17  O    3.793441   4.622902   4.421142   5.315941   2.270749
    18  H    4.525981   5.276392   5.338723   6.230658   2.989827
    19  N    2.713898   3.045142   4.420705   5.259341   4.420705
    20  O    2.840985   3.157808   4.778982   5.678539   4.782995
    21  O    3.614259   3.729492   5.275440   6.024143   5.271803
    22  N    4.420705   5.145280   2.713898   2.795438   2.713898
    23  O    4.785066   5.560035   2.851208   2.873137   2.837526
    24  O    5.269923   5.889482   3.606201   3.485185   3.616975
                   16         17         18         19         20
    16  H    0.000000
    17  O    2.804740   0.000000
    18  H    3.298359   0.960000   0.000000
    19  N    5.105598   2.713898   2.889803   0.000000
    20  O    5.512394   2.847730   2.983252   1.199341   0.000000
    21  O    5.850633   3.608948   3.573309   1.199337   2.110132
    22  N    3.108944   4.420705   5.223546   5.362720   6.026114
    23  O    3.226857   4.776927   5.637609   6.026114   6.503367
    24  O    3.797838   5.277302   5.984069   6.026100   6.837087
                   21         22         23         24
    21  O    0.000000
    22  N    6.026100   0.000000
    23  O    6.837087   1.199341   0.000000
    24  O    6.503336   1.199337   2.110132   0.000000
 Stoichiometry    C4H8N4O8
 Framework group  C1[X(C4H8N4O8)]
 Deg. of freedom    66
 Full point group                 C1      NOp   1
 Largest Abelian subgroup         C1      NOp   1
 Largest concise Abelian subgroup C1      NOp   1
                         Standard orientation:                         
 ---------------------------------------------------------------------
 Center     Atomic      Atomic             Coordinates (Angstroms)
 Number     Number       Type             X           Y           Z
 ---------------------------------------------------------------------
      1          6           0        0.702930   -1.205082    0.303248
      2          6           0       -0.698468   -1.207807    0.303107
      3          6           0       -0.703154    1.202395    0.305871
      4          6           0        0.698243    1.205120    0.306012
      5          1           0       -1.022793   -1.726949    1.180720
      6          1           0        1.022396    1.722247    1.184878
      7          7           0       -1.281470   -0.003835    0.304431
      8          7           0        1.281245    0.001148    0.304689
      9          1           0        1.029095   -1.722959    1.180927
     10          1           0       -1.029493    1.718257    1.184671
     11          8           0       -1.131681   -1.898921   -0.871451
     12          1           0       -1.598536   -2.698792   -0.618761
     13          8           0        1.139064   -1.894506   -0.871223
     14          1           0        1.855215   -2.492292   -0.644554
     15          8           0        1.131687    1.898926   -0.866873
     16          1           0        1.523879    2.738481   -0.616011
     17          8           0       -1.139058    1.894511   -0.867101
     18          1           0       -1.770411    2.574799   -0.621744
     19          7           0       -2.681467   -0.006557    0.304290
     20          8           0       -3.251667   -0.011513   -0.750825
     21          8           0       -3.251879   -0.003820    1.359293
     22          7           0        2.681242    0.003870    0.304829
     23          8           0        3.251639    0.016447   -0.750115
     24          8           0        3.251456   -0.006489    1.359892
 ---------------------------------------------------------------------
 Rotational constants (GHZ):      1.0484705      0.4254139      0.3648074
 Standard basis: 6-31G(d) (6D, 7F)
 There are   256 symmetry adapted cartesian basis functions of A   symmetry.
 There are   256 symmetry adapted basis functions of A   symmetry.
   256 basis functions,   480 primitive gaussians,   256 cartesian basis functions
    62 alpha electrons       62 beta electrons
       nuclear repulsion energy      1360.0238663919 Hartrees.
 NAtoms=   24 NActive=   24 NUniq=   24 SFac= 1.00D+00 NAtFMM=   60 NAOKFM=F Big=F
 Integral buffers will be    131072 words long.
 Raffenetti 1 integral format.
 Two-electron integral symmetry is turned on.
 One-electron integrals computed using PRISM.
 NBasis=   256 RedAO= T EigKep=  4.25D-04  NBF=   256
 NBsUse=   256 1.00D-06 EigRej= -1.00D+00 NBFU=   256
 ExpMin= 1.61D-01 ExpMax= 5.48D+03 ExpMxC= 8.25D+02 IAcc=1 IRadAn=         1 AccDes= 0.00D+00
 Harris functional with IExCor=  205 and IRadAn=       1 diagonalized for initial guess.
 HarFok:  IExCor=  205 AccDes= 0.00D+00 IRadAn=         1 IDoV= 1 UseB2=F ITyADJ=14
 ICtDFT=  3500011 ScaDFX=  1.000000  1.000000  1.000000  1.000000
 FoFCou: FMM=F IPFlag=           0 FMFlag=      100000 FMFlg1=           0
         NFxFlg=           0 DoJE=T BraDBF=F KetDBF=T FulRan=T
         wScrn=  0.000000 ICntrl=     500 IOpCl=  0 I1Cent=   200000004 NGrid=           0
         NMat0=    1 NMatS0=      1 NMatT0=    0 NMatD0=    1 NMtDS0=    0 NMtDT0=    0
 Petite list used in FoFCou.
 Requested convergence on RMS density matrix=1.00D-08 within 128 cycles.
 Requested convergence on MAX density matrix=1.00D-06.
 Requested convergence on             energy=1.00D-06.
 No special actions if energy rises.
 Integral accuracy reduced to 1.0D-05 until final iterations.
 Initial convergence to 1.0D-05 achieved.  Increase integral accuracy.
 SCF Done:  E(RHF) =  -972.297075566     A.U. after   15 cycles
            NFock= 15  Conv=0.82D-08     -V/T= 2.0006

 **********************************************************************

            Population analysis using the SCF density.

 **********************************************************************

 Orbital symmetries:
       Occupied  (A) (A) (A) (A) (A) (A) (A) (A) (A) (A) (A) (A)
                 (A) (A) (A) (A) (A) (A) (A) (A) (A) (A) (A) (A)
                 (A) (A) (A) (A) (A) (A) (A) (A) (A) (A) (A) (A)
                 (A) (A) (A) (A) (A) (A) (A) (A) (A) (A) (A) (A)
                 (A) (A) (A) (A) (A) (A) (A) (A) (A) (A) (A) (A)
                 (A) (A)
       Virtual   (A) (A) (A) (A) (A) (A) (A) (A) (A) (A) (A) (A)
                 (A) (A) (A) (A) (A) (A) (A) (A) (A) (A) (A) (A)
                 (A) (A) (A) (A) (A) (A) (A) (A) (A) (A) (A) (A)
                 (A) (A) (A) (A) (A) (A) (A) (A) (A) (A) (A) (A)
                 (A) (A) (A) (A) (A) (A) (A) (A) (A) (A) (A) (A)
                 (A) (A) (A) (A) (A) (A) (A) (A) (A) (A) (A) (A)
                 (A) (A) (A) (A) (A) (A) (A) (A) (A) (A) (A) (A)
                 (A) (A) (A) (A) (A) (A) (A) (A) (A) (A) (A) (A)
                 (A) (A) (A) (A) (A) (A) (A) (A) (A) (A) (A) (A)
                 (A) (A) (A) (A) (A) (A) (A) (A) (A) (A) (A) (A)
                 (A) (A) (A) (A) (A) (A) (A) (A) (A) (A) (A) (A)
                 (A) (A) (A) (A) (A) (A) (A) (A) (A) (A) (A) (A)
                 (A) (A) (A) (A) (A) (A) (A) (A) (A) (A) (A) (A)
                 (A) (A) (A) (A) (A) (A) (A) (A) (A) (A) (A) (A)
                 (A) (A) (A) (A) (A) (A) (A) (A) (A) (A) (A) (A)
                 (A) (A) (A) (A) (A) (A) (A) (A) (A) (A) (A) (A)
                 (A) (A)
 The electronic state is 1-A.
 Alpha  occ. eigenvalues --  -20.63299 -20.63243 -20.63156 -20.63086 -20.57859
 Alpha  occ. eigenvalues --  -20.57783 -20.57717 -20.57672 -15.90645 -15.90588
 Alpha  occ. eigenvalues --  -15.64402 -15.64392 -11.35802 -11.35796 -11.35691
 Alpha  occ. eigenvalues --  -11.35675  -1.67043  -1.66940  -1.46514  -1.43881
 Alpha  occ. eigenvalues --   -1.43802  -1.41817  -1.39991  -1.36727  -1.33780
 Alpha  occ. eigenvalues --   -1.30229  -1.11586  -1.10426  -0.98506  -0.97548
 Alpha  occ. eigenvalues --   -0.90845  -0.85001  -0.83550  -0.81480  -0.80849
 Alpha  occ. eigenvalues --   -0.78342  -0.77230  -0.75167  -0.74892  -0.73955
 Alpha  occ. eigenvalues --   -0.72034  -0.71725  -0.69216  -0.68026  -0.65138
 Alpha  occ. eigenvalues --   -0.63192  -0.60268  -0.57085  -0.56610  -0.56434
 Alpha  occ. eigenvalues --   -0.53969  -0.52851  -0.52651  -0.51624  -0.51457
 Alpha  occ. eigenvalues --   -0.49244  -0.48268  -0.48152  -0.46424  -0.45520
 Alpha  occ. eigenvalues --   -0.43804  -0.40836
 Alpha virt. eigenvalues --    0.08203   0.08392   0.16622   0.17025   0.21024
 Alpha virt. eigenvalues --    0.23246   0.23270   0.24757   0.28213   0.31469
 Alpha virt. eigenvalues --    0.31913   0.32095   0.33222   0.34613   0.37862
 Alpha virt. eigenvalues --    0.39511   0.43600   0.44784   0.51534   0.52165
 Alpha virt. eigenvalues --    0.52930   0.56982   0.59548   0.61347   0.66125
 Alpha virt. eigenvalues --    0.67305   0.67660   0.68013   0.70141   0.72540
 Alpha virt. eigenvalues --    0.74839   0.78556   0.83324   0.83926   0.84285
 Alpha virt. eigenvalues --    0.86745   0.88503   0.91098   0.91798   0.93532
 Alpha virt. eigenvalues --    0.93549   0.98273   0.98577   0.99769   1.02762
 Alpha virt. eigenvalues --    1.03935   1.04800   1.05365   1.05630   1.06613
 Alpha virt. eigenvalues --    1.08795   1.08969   1.09049   1.09324   1.09582
 Alpha virt. eigenvalues --    1.10335   1.11576   1.13239   1.13893   1.14666
 Alpha virt. eigenvalues --    1.15378   1.18407   1.20415   1.23319   1.24306
 Alpha virt. eigenvalues --    1.24630   1.25798   1.26181   1.27725   1.27893
 Alpha virt. eigenvalues --    1.28905   1.29205   1.29761   1.29903   1.30616
 Alpha virt. eigenvalues --    1.32895   1.36043   1.36698   1.42468   1.43123
 Alpha virt. eigenvalues --    1.45190   1.46392   1.48314   1.50867   1.54630
 Alpha virt. eigenvalues --    1.55286   1.60171   1.62398   1.65181   1.65745
 Alpha virt. eigenvalues --    1.67917   1.68332   1.71585   1.72637   1.76109
 Alpha virt. eigenvalues --    1.78045   1.80929   1.82400   1.86840   1.87810
 Alpha virt. eigenvalues --    1.90623   1.92571   1.95959   1.98852   2.02033
 Alpha virt. eigenvalues --    2.05387   2.06959   2.08824   2.09112   2.09212
 Alpha virt. eigenvalues --    2.09926   2.12132   2.13262   2.15403   2.17621
 Alpha virt. eigenvalues --    2.17704   2.18226   2.20543   2.24299   2.25575
 Alpha virt. eigenvalues --    2.26604   2.27411   2.27961   2.28242   2.29715
 Alpha virt. eigenvalues --    2.31417   2.34310   2.34459   2.35100   2.35992
 Alpha virt. eigenvalues --    2.43435   2.46185   2.46707   2.48293   2.48471
 Alpha virt. eigenvalues --    2.50075   2.52332   2.54113   2.55850   2.58720
 Alpha virt. eigenvalues --    2.59868   2.60404   2.66003   2.67862   2.69656
 Alpha virt. eigenvalues --    2.72285   2.78729   2.80789   2.82935   2.86659
 Alpha virt. eigenvalues --    2.88207   2.91553   2.95688   2.96542   3.00243
 Alpha virt. eigenvalues --    3.01622   3.02316   3.04072   3.11055   3.12349
 Alpha virt. eigenvalues --    3.15202   3.19634   3.19827   3.20714   3.24699
 Alpha virt. eigenvalues --    3.25053   3.27307   3.28352   3.28507   3.29848
 Alpha virt. eigenvalues --    3.30724   3.36771   3.43681   3.44181   3.45230
 Alpha virt. eigenvalues --    3.52913   3.55595   3.77116   3.99301   4.11182
 Alpha virt. eigenvalues --    4.19844   4.25807   4.31078   4.31324   4.39125
 Alpha virt. eigenvalues --    4.42623   4.50156   4.51258   4.66545   4.78884
 Alpha virt. eigenvalues --    4.79791   4.87431   5.24785   5.79681
          Condensed to atoms (all electrons):
               1          2          3          4          5          6
     1  C    4.676101   0.283151  -0.026720  -0.007861  -0.067559   0.003149
     2  C    0.283151   4.653086  -0.008558  -0.025115   0.462820  -0.000898
     3  C   -0.026720  -0.008558   4.678422   0.278921   0.003266  -0.068766
     4  C   -0.007861  -0.025115   0.278921   4.656835  -0.000934   0.462687
     5  H   -0.067559   0.462820   0.003266  -0.000934   0.541006   0.000074
     6  H    0.003149  -0.000898  -0.068766   0.462687   0.000074   0.543226
     7  N   -0.010066   0.155625   0.147009  -0.009983  -0.084297   0.005817
     8  N    0.140787  -0.009103  -0.008905   0.157503   0.005695  -0.083584
     9  H    0.459748  -0.063306  -0.000936   0.003748  -0.007377   0.000849
    10  H   -0.000916   0.003577   0.459126  -0.064365   0.000859  -0.007227
    11  O   -0.047565   0.273715   0.003630   0.000194  -0.048322  -0.000003
    12  H    0.004930  -0.018382  -0.000308   0.000007  -0.005455  -0.000000
    13  O    0.277246  -0.046259   0.000222   0.004223   0.002902  -0.000272
    14  H   -0.016058   0.006252   0.000017  -0.000398  -0.000200   0.000013
    15  O    0.003499   0.000173  -0.048555   0.273375  -0.000002  -0.048939
    16  H   -0.000282   0.000005   0.004459  -0.018618   0.000000  -0.005091
    17  O    0.000201   0.003845   0.276384  -0.048071  -0.000269   0.002970
    18  H    0.000014  -0.000363  -0.017119   0.005890   0.000013  -0.000188
    19  N    0.001895  -0.053443  -0.054270   0.001647  -0.007656  -0.000194
    20  O   -0.000365  -0.000867  -0.000749  -0.000353  -0.000078   0.000002
    21  O   -0.000102   0.004281   0.004581  -0.000079   0.005594   0.000008
    22  N   -0.054369   0.001737   0.001904  -0.053761  -0.000192  -0.007677
    23  O   -0.000827  -0.000359  -0.000368  -0.000913   0.000002  -0.000079
    24  O    0.004808  -0.000067  -0.000106   0.004198   0.000007   0.005568
               7          8          9         10         11         12
     1  C   -0.010066   0.140787   0.459748  -0.000916  -0.047565   0.004930
     2  C    0.155625  -0.009103  -0.063306   0.003577   0.273715  -0.018382
     3  C    0.147009  -0.008905  -0.000936   0.459126   0.003630  -0.000308
     4  C   -0.009983   0.157503   0.003748  -0.064365   0.000194   0.000007
     5  H   -0.084297   0.005695  -0.007377   0.000859  -0.048322  -0.005455
     6  H    0.005817  -0.083584   0.000849  -0.007227  -0.000003  -0.000000
     7  N    7.608666  -0.034414   0.005852  -0.085027  -0.104113   0.005407
     8  N   -0.034414   7.612213  -0.086339   0.005911  -0.000664  -0.000087
     9  H    0.005852  -0.086339   0.541310   0.000081   0.003462  -0.000169
    10  H   -0.085027   0.005911   0.000081   0.542952  -0.000260   0.000012
    11  O   -0.104113  -0.000664   0.003462  -0.000260   8.431088   0.254153
    12  H    0.005407  -0.000087  -0.000169   0.000012   0.254153   0.312295
    13  O   -0.000845  -0.110871  -0.048573  -0.000003  -0.057608   0.001975
    14  H   -0.000103   0.002762  -0.005801  -0.000000   0.001644  -0.000083
    15  O   -0.000651  -0.102139  -0.000254   0.003489   0.000000   0.000000
    16  H   -0.000079   0.005948   0.000012  -0.000142   0.000000  -0.000000
    17  O   -0.109110  -0.000748  -0.000003  -0.048952   0.000031   0.000000
    18  H    0.003950  -0.000106  -0.000000  -0.005792   0.000001   0.000000
    19  N    0.269128   0.000121  -0.000194  -0.008019   0.001909   0.000869
    20  O   -0.114277   0.000004   0.000002  -0.000067   0.000002   0.000146
    21  O   -0.122710   0.000004   0.000007   0.005665  -0.000387  -0.000019
    22  N    0.000103   0.269224  -0.008066  -0.000196  -0.000070   0.000004
    23  O    0.000004  -0.114216  -0.000054   0.000002   0.000003  -0.000000
    24  O    0.000005  -0.122914   0.005638   0.000007  -0.000000  -0.000000
              13         14         15         16         17         18
     1  C    0.277246  -0.016058   0.003499  -0.000282   0.000201   0.000014
     2  C   -0.046259   0.006252   0.000173   0.000005   0.003845  -0.000363
     3  C    0.000222   0.000017  -0.048555   0.004459   0.276384  -0.017119
     4  C    0.004223  -0.000398   0.273375  -0.018618  -0.048071   0.005890
     5  H    0.002902  -0.000200  -0.000002   0.000000  -0.000269   0.000013
     6  H   -0.000272   0.000013  -0.048939  -0.005091   0.002970  -0.000188
     7  N   -0.000845  -0.000103  -0.000651  -0.000079  -0.109110   0.003950
     8  N   -0.110871   0.002762  -0.102139   0.005948  -0.000748  -0.000106
     9  H   -0.048573  -0.005801  -0.000254   0.000012  -0.000003  -0.000000
    10  H   -0.000003  -0.000000   0.003489  -0.000142  -0.048952  -0.005792
    11  O   -0.057608   0.001644   0.000000   0.000000   0.000031   0.000001
    12  H    0.001975  -0.000083   0.000000  -0.000000   0.000000   0.000000
    13  O    8.436984   0.252233   0.000023   0.000000   0.000000   0.000000
    14  H    0.252233   0.312043   0.000002   0.000000   0.000000  -0.000000
    15  O    0.000023   0.000002   8.432819   0.254021  -0.060119   0.001850
    16  H    0.000000   0.000000   0.254021   0.313531   0.002332  -0.000107
    17  O    0.000000   0.000000  -0.060119   0.002332   8.440019   0.252429
    18  H    0.000000  -0.000000   0.001850  -0.000107   0.252429   0.313563
    19  N   -0.000057   0.000004  -0.000075   0.000004   0.001300   0.001469
    20  O    0.000002  -0.000000   0.000003   0.000000   0.000309   0.000267
    21  O   -0.000000  -0.000000  -0.000000  -0.000000  -0.000384  -0.000084
    22  N    0.000987   0.001992   0.002295   0.000666  -0.000059   0.000004
    23  O    0.000367   0.000434  -0.000163   0.000122   0.000003  -0.000000
    24  O   -0.000359  -0.000152  -0.000384  -0.000004  -0.000000  -0.000000
              19         20         21         22         23         24
     1  C    0.001895  -0.000365  -0.000102  -0.054369  -0.000827   0.004808
     2  C   -0.053443  -0.000867   0.004281   0.001737  -0.000359  -0.000067
     3  C   -0.054270  -0.000749   0.004581   0.001904  -0.000368  -0.000106
     4  C    0.001647  -0.000353  -0.000079  -0.053761  -0.000913   0.004198
     5  H   -0.007656  -0.000078   0.005594  -0.000192   0.000002   0.000007
     6  H   -0.000194   0.000002   0.000008  -0.007677  -0.000079   0.005568
     7  N    0.269128  -0.114277  -0.122710   0.000103   0.000004   0.000005
     8  N    0.000121   0.000004   0.000004   0.269224  -0.114216  -0.122914
     9  H   -0.000194   0.000002   0.000007  -0.008066  -0.000054   0.005638
    10  H   -0.008019  -0.000067   0.005665  -0.000196   0.000002   0.000007
    11  O    0.001909   0.000002  -0.000387  -0.000070   0.000003  -0.000000
    12  H    0.000869   0.000146  -0.000019   0.000004  -0.000000  -0.000000
    13  O   -0.000057   0.000002  -0.000000   0.000987   0.000367  -0.000359
    14  H    0.000004  -0.000000  -0.000000   0.001992   0.000434  -0.000152
    15  O   -0.000075   0.000003  -0.000000   0.002295  -0.000163  -0.000384
    16  H    0.000004   0.000000  -0.000000   0.000666   0.000122  -0.000004
    17  O    0.001300   0.000309  -0.000384  -0.000059   0.000003  -0.000000
    18  H    0.001469   0.000267  -0.000084   0.000004  -0.000000  -0.000000
    19  N    5.463510   0.362782   0.323353   0.000007  -0.000000  -0.000000
    20  O    0.362782   8.212761  -0.104909  -0.000000  -0.000000   0.000000
    21  O    0.323353  -0.104909   8.322110  -0.000000   0.000000  -0.000000
    22  N    0.000007  -0.000000  -0.000000   5.466555   0.361222   0.323683
    23  O   -0.000000  -0.000000   0.000000   0.361222   8.215104  -0.104919
    24  O   -0.000000   0.000000  -0.000000   0.323683  -0.104919   8.320699
 Mulliken charges:
               1
     1  C    0.377161
     2  C    0.378451
     3  C    0.377419
     4  C    0.381224
     5  H    0.200105
     6  H    0.198554
     7  N   -0.525891
     8  N   -0.526082
     9  H    0.200364
    10  H    0.199286
    11  O   -0.710839
    12  H    0.444704
    13  O   -0.712315
    14  H    0.445398
    15  O   -0.710266
    16  H    0.443224
    17  O   -0.712107
    18  H    0.444307
    19  N    0.695910
    20  O   -0.354615
    21  O   -0.436929
    22  N    0.694010
    23  O   -0.355364
    24  O   -0.435709
 Sum of Mulliken charges =  -0.00000
 Mulliken charges with hydrogens summed into heavy atoms:
               1
     1  C    0.577525
     2  C    0.578556
     3  C    0.576704
     4  C    0.579779
     7  N   -0.525891
     8  N   -0.526082
    11  O   -0.266135
    13  O   -0.266917
    15  O   -0.267041
    17  O   -0.267800
    19  N    0.695910
    20  O   -0.354615
    21  O   -0.436929
    22  N    0.694010
    23  O   -0.355364
    24  O   -0.435709
 Electronic spatial extent (au):  <R**2>=           3044.9491
 Charge=             -0.0000 electrons
 Dipole moment (field-independent basis, Debye):
    X=              0.0037    Y=              0.2026    Z=              5.2143  Tot=              5.2183
 Quadrupole moment (field-independent basis, Debye-Ang):
   XX=           -110.2425   YY=            -65.2097   ZZ=           -102.0230
   XY=             -1.1655   XZ=             -0.0619   YZ=             -0.0322
 Traceless Quadrupole moment (field-independent basis, Debye-Ang):
   XX=            -17.7508   YY=             27.2820   ZZ=             -9.5313
   XY=             -1.1655   XZ=             -0.0619   YZ=             -0.0322
 Octapole moment (field-independent basis, Debye-Ang**2):
  XXX=              0.6275  YYY=              5.1847  ZZZ=             -4.9192  XYY=             -1.0050
  XXY=             -2.1405  XXZ=            -17.7155  XZZ=              0.1317  YZZ=              0.0437
  YYZ=              7.4124  XYZ=              1.2751
 Hexadecapole moment (field-independent basis, Debye-Ang**3):
 XXXX=          -2665.6220 YYYY=           -602.9100 ZZZZ=           -397.7708 XXXY=            -20.5289
 XXXZ=             -0.3943 YYYX=              8.9996 YYYZ=             -2.7951 ZZZX=             -0.0803
 ZZZY=              0.0029 XXYY=           -392.0477 XXZZ=           -522.0326 YYZZ=           -211.2463
 XXYZ=              2.1903 YYXZ=              0.0878 ZZXY=             -0.8147
 N-N= 1.360023866392D+03 E-N=-5.011758440461D+03  KE= 9.717453130709D+02
 Calling FoFJK, ICntrl=      2127 FMM=F ISym2X=0 I1Cent= 0 IOpClX= 0 NMat=1 NMatS=1 NMatT=0.
 ***** Axes restored to original set *****
 -------------------------------------------------------------------
 Center     Atomic                   Forces (Hartrees/Bohr)
 Number     Number              X              Y              Z
 -------------------------------------------------------------------
      1        6           0.020590029   -0.127283949    0.034409214
      2        6           0.120606361    0.041335573    0.034547472
      3        6          -0.020074521    0.126377995    0.033206747
      4        6          -0.119678085   -0.041357200    0.035003222
      5        1           0.017062477   -0.001125632   -0.005105199
      6        1          -0.017330714    0.000954909   -0.005072014
      7        7           0.028756214    0.046391720   -0.008636562
      8        7          -0.031414264   -0.045161431   -0.008419825
      9        1           0.009371000   -0.014298455   -0.005044225
     10        1          -0.009410286    0.014444934   -0.005073691
     11        8           0.022388455    0.017217555   -0.030191240
     12        1          -0.013490623   -0.001365891    0.006028253
     13        8           0.001549927   -0.026814310   -0.028603262
     14        1          -0.003856167    0.012428789    0.004548150
     15        8          -0.022846290   -0.018648752   -0.030389583
     16        1           0.013609642    0.000398795    0.005988017
     17        8          -0.000933899    0.028394982   -0.029646041
     18        1           0.005280173   -0.011981271    0.005136205
     19        7           0.023156100    0.037268654    0.025903222
     20        8          -0.014165866   -0.022846704   -0.026843516
     21        8          -0.011149956   -0.018939428   -0.000241198
     22        7          -0.023727425   -0.036456205    0.025168262
     23        8           0.014451076    0.022156095   -0.026595192
     24        8           0.011256641    0.018909227   -0.000077216
 -------------------------------------------------------------------
 Cartesian Forces:  Max     0.127283949 RMS     0.036118329

 GradGradGradGradGradGradGradGradGradGradGradGradGradGradGradGradGradGrad
 Berny optimization.
 FormGI is forming the generalized inverse of G from B-inverse, IUseBI=4.
 Internal  Forces:  Max     0.148613648 RMS     0.028515496
 Search for a local minimum.
 Step number   1 out of a maximum of  136
 All quantities printed in internal units (Hartrees-Bohrs-Radians)
 Mixed Optimization -- RFO/linear search
 Second derivative matrix not updated -- first step.
 ITU=  0
     Eigenvalues ---    0.01295   0.01295   0.01295   0.01295   0.01295
     Eigenvalues ---    0.01295   0.01295   0.01295   0.02188   0.02195
     Eigenvalues ---    0.02271   0.02417   0.02516   0.04730   0.05029
     Eigenvalues ---    0.05941   0.05980   0.06572   0.06856   0.07112
     Eigenvalues ---    0.07162   0.08269   0.08580   0.08745   0.08812
     Eigenvalues ---    0.14555   0.15697   0.16000   0.16000   0.16000
     Eigenvalues ---    0.16000   0.17182   0.18680   0.19747   0.21412
     Eigenvalues ---    0.22996   0.25000   0.25000   0.25000   0.25000
     Eigenvalues ---    0.25000   0.25000   0.37230   0.37230   0.37230
     Eigenvalues ---    0.37230   0.40989   0.40989   0.40989   0.40989
     Eigenvalues ---    0.41261   0.45389   0.45621   0.45621   0.50294
     Eigenvalues ---    0.55473   0.55473   0.55473   0.55473   0.56219
     Eigenvalues ---    0.57723   0.57723   1.05155   1.05155   1.05157
     Eigenvalues ---    1.05157
 RFO step:  Lambda=-1.69068144D-01 EMin= 1.29480483D-02
 Linear search not attempted -- first point.
 Maximum step size (   0.300) exceeded in Quadratic search.
    -- Step size scaled by   0.580
 Iteration  1 RMS(Cart)=  0.06819702 RMS(Int)=  0.00097913
 Iteration  2 RMS(Cart)=  0.00140692 RMS(Int)=  0.00012327
 Iteration  3 RMS(Cart)=  0.00000048 RMS(Int)=  0.00012327
 Variable       Old X    -DE/DX   Delta X   Delta X   Delta X     New X
                                 (Linear)    (Quad)   (Total)
    R1        2.64826   0.14638   0.00000   0.13622   0.13622   2.78449
    R2        2.52789   0.10306   0.00000   0.08006   0.08007   2.60795
    R3        2.02201   0.01386   0.00000   0.01484   0.01484   2.03685
    R4        2.70231  -0.01313   0.00000  -0.01315  -0.01315   2.68916
    R5        2.02201   0.01386   0.00000   0.01485   0.01485   2.03685
    R6        2.52789   0.09941   0.00000   0.07721   0.07722   2.60510
    R7        2.70231  -0.01429   0.00000  -0.01431  -0.01431   2.68800
    R8        2.64826   0.14861   0.00000   0.13832   0.13831   2.78657
    R9        2.52789   0.10146   0.00000   0.07882   0.07881   2.60670
   R10        2.02201   0.01398   0.00000   0.01497   0.01497   2.03698
   R11        2.70231  -0.01295   0.00000  -0.01297  -0.01297   2.68934
   R12        2.02201   0.01408   0.00000   0.01508   0.01508   2.03708
   R13        2.52789   0.09825   0.00000   0.07634   0.07633   2.60422
   R14        2.70231  -0.01447   0.00000  -0.01449  -0.01449   2.68782
   R15        2.64562  -0.00499   0.00000  -0.00462  -0.00462   2.64099
   R16        2.64562  -0.00499   0.00000  -0.00463  -0.00463   2.64099
   R17        1.81414  -0.01462   0.00000  -0.01171  -0.01171   1.80242
   R18        1.81414  -0.01362   0.00000  -0.01091  -0.01091   1.80323
   R19        1.81414  -0.01461   0.00000  -0.01171  -0.01171   1.80243
   R20        1.81414  -0.01389   0.00000  -0.01113  -0.01113   1.80301
   R21        2.26643  -0.03644   0.00000  -0.01731  -0.01731   2.24912
   R22        2.26642  -0.01016   0.00000  -0.00483  -0.00483   2.26159
   R23        2.26643  -0.03592   0.00000  -0.01706  -0.01706   2.24936
   R24        2.26642  -0.01047   0.00000  -0.00497  -0.00497   2.26145
    A1        2.01981  -0.01531   0.00000  -0.02086  -0.02104   1.99876
    A2        1.87965  -0.00298   0.00000  -0.00704  -0.00695   1.87270
    A3        1.87965   0.02554   0.00000   0.04441   0.04453   1.92418
    A4        1.87944   0.00607   0.00000   0.00565   0.00546   1.88490
    A5        1.87944   0.00052   0.00000   0.00573   0.00577   1.88520
    A6        1.92557  -0.01484   0.00000  -0.03008  -0.02998   1.89559
    A7        1.87965  -0.00410   0.00000  -0.00883  -0.00872   1.87093
    A8        2.01981  -0.01430   0.00000  -0.01953  -0.01962   2.00019
    A9        1.87965   0.02995   0.00000   0.05239   0.05252   1.93217
   A10        1.87944   0.00667   0.00000   0.00701   0.00675   1.88619
   A11        1.92557  -0.01409   0.00000  -0.02827  -0.02821   1.89735
   A12        1.87944  -0.00510   0.00000  -0.00484  -0.00483   1.87461
   A13        2.01981  -0.01556   0.00000  -0.02117  -0.02135   1.99846
   A14        1.87965  -0.00329   0.00000  -0.00741  -0.00730   1.87235
   A15        1.87965   0.02850   0.00000   0.04960   0.04974   1.92939
   A16        1.87944   0.00671   0.00000   0.00641   0.00619   1.88563
   A17        1.87944  -0.00207   0.00000   0.00132   0.00135   1.88079
   A18        1.92557  -0.01534   0.00000  -0.03101  -0.03093   1.89464
   A19        1.87965  -0.00431   0.00000  -0.00909  -0.00896   1.87069
   A20        2.01981  -0.01450   0.00000  -0.01974  -0.01982   1.99998
   A21        1.87965   0.03226   0.00000   0.05642   0.05655   1.93620
   A22        1.87944   0.00725   0.00000   0.00767   0.00738   1.88682
   A23        1.92557  -0.01444   0.00000  -0.02890  -0.02887   1.89669
   A24        1.87944  -0.00725   0.00000  -0.00846  -0.00844   1.87099
   A25        2.24357   0.02993   0.00000   0.04075   0.04081   2.28438
   A26        2.01981  -0.01494   0.00000  -0.02034  -0.02039   1.99942
   A27        2.01981  -0.01499   0.00000  -0.02041  -0.02045   1.99935
   A28        2.24357   0.02974   0.00000   0.04056   0.04061   2.28419
   A29        2.01981  -0.01506   0.00000  -0.02054  -0.02059   1.99922
   A30        2.01981  -0.01468   0.00000  -0.02001  -0.02006   1.99975
   A31        1.91114   0.00392   0.00000   0.00691   0.00691   1.91804
   A32        1.91114   0.00189   0.00000   0.00333   0.00333   1.91447
   A33        1.91114   0.00399   0.00000   0.00704   0.00704   1.91817
   A34        1.91114   0.00267   0.00000   0.00471   0.00471   1.91585
   A35        2.06635  -0.00149   0.00000  -0.00205  -0.00206   2.06430
   A36        2.06634  -0.02134   0.00000  -0.02952  -0.02953   2.03682
   A37        2.15049   0.02283   0.00000   0.03158   0.03158   2.18207
   A38        2.06635  -0.00158   0.00000  -0.00218  -0.00219   2.06417
   A39        2.06634  -0.02114   0.00000  -0.02925  -0.02925   2.03709
   A40        2.15049   0.02272   0.00000   0.03143   0.03143   2.18192
    D1       -2.10327   0.00432   0.00000   0.01123   0.01111  -2.09217
    D2        0.00000   0.00049   0.00000   0.00089   0.00087   0.00087
    D3        2.10327   0.00695   0.00000   0.02103   0.02089   2.12417
    D4       -0.00000  -0.00011   0.00000  -0.00039  -0.00039  -0.00039
    D5        2.10327  -0.00393   0.00000  -0.01073  -0.01062   2.09266
    D6       -2.07664   0.00253   0.00000   0.00941   0.00940  -2.06723
    D7        2.07664  -0.00543   0.00000  -0.01569  -0.01567   2.06096
    D8       -2.10327  -0.00925   0.00000  -0.02603  -0.02591  -2.12918
    D9       -0.00000  -0.00279   0.00000  -0.00589  -0.00589  -0.00589
   D10       -0.00000  -0.01189   0.00000  -0.02394  -0.02385  -0.02385
   D11        3.14159  -0.01489   0.00000  -0.03302  -0.03301   3.10859
   D12       -2.10339  -0.00257   0.00000  -0.00545  -0.00543  -2.10882
   D13        1.03820  -0.00556   0.00000  -0.01453  -0.01458   1.02362
   D14        2.10339   0.01139   0.00000   0.02392   0.02391   2.12730
   D15       -1.03820   0.00840   0.00000   0.01484   0.01476  -1.02344
   D16       -2.36940  -0.00295   0.00000  -0.00182  -0.00136  -2.37076
   D17        1.72432  -0.00042   0.00000  -0.00742  -0.00770   1.71662
   D18       -0.32235   0.00015   0.00000  -0.00100  -0.00119  -0.32353
   D19       -0.00000   0.01137   0.00000   0.02296   0.02289   0.02289
   D20        3.14159   0.01440   0.00000   0.03208   0.03208  -3.10951
   D21        2.10339   0.00173   0.00000   0.00406   0.00403   2.10742
   D22       -1.03820   0.00475   0.00000   0.01317   0.01322  -1.02498
   D23       -2.10339  -0.01406   0.00000  -0.02815  -0.02817  -2.13156
   D24        1.03820  -0.01103   0.00000  -0.01904  -0.01898   1.01922
   D25        2.01563   0.00152   0.00000  -0.00281  -0.00319   2.01244
   D26       -0.03142  -0.00323   0.00000  -0.00713  -0.00686  -0.03828
   D27       -2.07808  -0.00053   0.00000   0.00281   0.00292  -2.07516
   D28       -2.10327   0.00385   0.00000   0.01065   0.01054  -2.09273
   D29        0.00000   0.00049   0.00000   0.00082   0.00081   0.00081
   D30        2.10327   0.00576   0.00000   0.01916   0.01902   2.12229
   D31       -0.00000  -0.00014   0.00000  -0.00048  -0.00047  -0.00047
   D32        2.10327  -0.00350   0.00000  -0.01031  -0.01020   2.09307
   D33       -2.07664   0.00178   0.00000   0.00803   0.00801  -2.06863
   D34        2.07664  -0.00460   0.00000  -0.01426  -0.01423   2.06241
   D35       -2.10327  -0.00796   0.00000  -0.02409  -0.02396  -2.12724
   D36        0.00000  -0.00269   0.00000  -0.00575  -0.00575  -0.00575
   D37        0.00000  -0.01189   0.00000  -0.02386  -0.02377  -0.02377
   D38        3.14159  -0.01491   0.00000  -0.03297  -0.03296   3.10863
   D39       -2.10339  -0.00249   0.00000  -0.00525  -0.00523  -2.10862
   D40        1.03820  -0.00551   0.00000  -0.01436  -0.01442   1.02378
   D41        2.10339   0.01311   0.00000   0.02719   0.02719   2.13058
   D42       -1.03820   0.01009   0.00000   0.01807   0.01800  -1.02020
   D43       -2.23671  -0.00319   0.00000  -0.00200  -0.00154  -2.23825
   D44        1.85700  -0.00058   0.00000  -0.00771  -0.00792   1.84908
   D45       -0.18966   0.00100   0.00000   0.00088   0.00063  -0.18904
   D46       -0.00000   0.01138   0.00000   0.02304   0.02297   0.02297
   D47        3.14159   0.01437   0.00000   0.03212   0.03212  -3.10947
   D48        2.10339   0.00177   0.00000   0.00415   0.00412   2.10751
   D49       -1.03820   0.00476   0.00000   0.01323   0.01328  -1.02493
   D50       -2.10339  -0.01528   0.00000  -0.03041  -0.03044  -2.13383
   D51        1.03820  -0.01228   0.00000  -0.02133  -0.02128   1.01692
   D52        1.92181   0.00166   0.00000  -0.00293  -0.00329   1.91853
   D53       -0.12523  -0.00399   0.00000  -0.00892  -0.00860  -0.13384
   D54       -2.17190  -0.00055   0.00000   0.00268   0.00271  -2.16918
   D55       -1.56600  -0.00200   0.00000  -0.00614  -0.00600  -1.57200
   D56        1.57559  -0.00110   0.00000  -0.00328  -0.00314   1.57245
   D57        1.57559   0.00063   0.00000   0.00178   0.00164   1.57723
   D58       -1.56600   0.00153   0.00000   0.00463   0.00450  -1.56151
   D59        1.58052   0.00003   0.00000  -0.00012  -0.00025   1.58027
   D60       -1.56107   0.00162   0.00000   0.00497   0.00483  -1.55624
   D61       -1.56107  -0.00257   0.00000  -0.00800  -0.00786  -1.56894
   D62        1.58052  -0.00098   0.00000  -0.00292  -0.00278   1.57774
         Item               Value     Threshold  Converged?
 Maximum Force            0.148614     0.000450     NO 
 RMS     Force            0.028515     0.000300     NO 
 Maximum Displacement     0.216871     0.001800     NO 
 RMS     Displacement     0.067650     0.001200     NO 
 Predicted change in Energy=-7.848688D-02
 GradGradGradGradGradGradGradGradGradGradGradGradGradGradGradGradGradGrad

                          Input orientation:                          
 ---------------------------------------------------------------------
 Center     Atomic      Atomic             Coordinates (Angstroms)
 Number     Number       Type             X           Y           Z
 ---------------------------------------------------------------------
      1          6           0        1.510478   -0.078529   -0.065870
      2          6           0        2.246851    1.197746   -0.072128
      3          6           0        0.075022    2.453007   -0.066092
      4          6           0       -0.661968    1.175806   -0.061038
      5          1           0        2.854588    1.210640   -0.962219
      6          1           0       -1.276835    1.159432   -0.946310
      7          7           0        1.448006    2.321200   -0.083472
      8          7           0        0.136693    0.052807   -0.073457
      9          1           0        1.798256   -0.618926   -0.952956
     10          1           0       -0.220059    2.989397   -0.953294
     11          8           0        3.098450    1.292585    1.063252
     12          1           0        4.010362    1.311561    0.784333
     13          8           0        1.872488   -0.850383    1.073531
     14          1           0        2.011698   -1.758507    0.815683
     15          8           0       -1.504821    1.079889    1.080639
     16          1           0       -2.418907    1.142793    0.815618
     17          8           0       -0.271737    3.234253    1.071772
     18          1           0       -0.525924    4.111454    0.795664
     19          7           0        2.146991    3.530494   -0.130169
     20          8           0        2.451060    4.046041    0.898562
     21          8           0        2.390785    3.969095   -1.216670
     22          7           0       -0.562018   -1.157010   -0.109483
     23          8           0       -0.860768   -1.666452    0.923987
     24          8           0       -0.809052   -1.603605   -1.191902
 ---------------------------------------------------------------------
                    Distance matrix (angstroms):
                    1          2          3          4          5
     1  C    0.000000
     2  C    1.473487   0.000000
     3  C    2.910191   2.508497   0.000000
     4  C    2.508565   2.908922   1.474592   0.000000
     5  H    2.066889   1.077856   3.173721   3.630358   0.000000
     6  H    3.174403   3.630705   2.067761   1.077978   4.131770
     7  N    2.400607   1.378561   1.379406   2.400920   1.995999
     8  N    1.380069   2.400761   2.401003   1.378093   3.085033
     9  H    1.077853   2.068186   3.632195   3.173214   2.112637
    10  H    3.632416   3.173659   1.077921   2.068940   3.552113
    11  O    2.382546   1.422429   3.429740   3.926628   2.041743
    12  H    2.984060   1.963785   4.184856   4.750131   2.096769
    13  O    1.423040   2.376450   3.929633   3.437464   3.058858
    14  H    1.962315   3.095631   4.718590   4.065380   3.561914
    15  O    3.427600   3.926551   2.386702   1.422332   4.816099
    16  H    4.208172   4.749779   2.951907   1.963785   5.565523
    17  O    3.930018   3.434989   1.423137   2.381751   4.243351
    18  H    4.737629   4.114734   1.963213   3.061123   4.788813
    19  N    3.665288   2.335606   2.336267   3.666004   2.564122
    20  O    4.338998   3.016078   3.018919   4.341661   3.415382
    21  O    4.299133   3.001844   2.997517   4.296189   2.808724
    22  N    2.336720   3.665517   3.666050   2.335459   4.243362
    23  O    3.020616   4.342024   4.338883   3.014669   5.063527
    24  O    2.995668   4.294183   4.301760   3.004266   4.625472
                    6          7          8          9         10
     6  H    0.000000
     7  N    3.085280   0.000000
     8  N    1.996134   2.620162   0.000000
     9  H    3.552293   3.085939   1.996381   0.000000
    10  H    2.113195   1.996377   3.086250   4.134440   0.000000
    11  O    4.816553   2.257651   3.406048   3.067487   4.237704
    12  H    5.565313   2.887581   4.162400   3.411505   4.871441
    13  O    4.247040   3.402614   2.268109   2.041013   4.819822
    14  H    4.736394   4.215475   2.754464   2.114778   5.536479
    15  O    2.041280   3.408107   2.254197   4.234596   3.071436
    16  H    2.099761   4.141258   2.917124   4.900609   3.372525
    17  O    3.063944   2.264016   3.405871   4.819895   2.040470
    18  H    3.508956   2.806116   4.203218   5.553016   2.100338
    19  N    4.243890   1.397553   4.017315   4.244559   2.563835
    20  O    5.062930   2.223867   4.716676   5.061244   3.417710
    21  O    4.628037   2.211001   4.661027   4.633635   2.801014
    22  N    2.564595   4.017315   1.397552   2.563567   4.245190
    23  O    3.414197   4.716649   2.223888   3.419157   5.060792
    24  O    2.813097   4.661226   2.211121   2.797275   4.636757
                   11         12         13         14         15
    11  O    0.000000
    12  H    0.953802   0.000000
    13  O    2.468887   3.054201   0.000000
    14  H    3.248304   3.663462   0.954229   0.000000
    15  O    4.608215   5.527993   3.890015   4.526875   0.000000
    16  H    5.524942   6.431559   4.738707   5.296017   0.953806
    17  O    3.889513   4.702737   4.613237   5.496117   2.482309
    18  H    4.599317   5.330799   5.518099   6.395026   3.198412
    19  N    2.708831   3.038441   4.551520   5.374613   4.561497
    20  O    2.833330   3.149897   4.933592   5.821742   4.947747
    21  O    3.586438   3.699936   5.361065   6.089301   5.366645
    22  N    4.557944   5.272515   2.724035   2.800312   2.703513
    23  O    4.944765   5.711040   2.856400   2.875981   2.825196
    24  O    5.361177   5.969125   3.590291   3.465693   3.584645
                   16         17         18         19         20
    16  H    0.000000
    17  O    3.008348   0.000000
    18  H    3.520899   0.954111   0.000000
    19  N    5.238612   2.717106   2.887760   0.000000
    20  O    5.670300   2.846511   2.979479   1.190183   0.000000
    21  O    5.937281   3.586918   3.546398   1.196783   2.117489
    22  N    3.097247   4.556623   5.345774   5.414042   6.096436
    23  O    3.214249   4.938188   5.789023   6.096401   6.603137
    24  O    3.763571   5.368221   6.057432   6.018675   6.849589
                   21         22         23         24
    21  O    0.000000
    22  N    6.018460   0.000000
    23  O    6.849408   1.190312   0.000000
    24  O    6.426084   1.196706   2.117454   0.000000
 Stoichiometry    C4H8N4O8
 Framework group  C1[X(C4H8N4O8)]
 Deg. of freedom    66
 Full point group                 C1      NOp   1
 Largest Abelian subgroup         C1      NOp   1
 Largest concise Abelian subgroup C1      NOp   1
                         Standard orientation:                         
 ---------------------------------------------------------------------
 Center     Atomic      Atomic             Coordinates (Angstroms)
 Number     Number       Type             X           Y           Z
 ---------------------------------------------------------------------
      1          6           0        0.738766   -1.253871    0.264239
      2          6           0       -0.734720   -1.255512    0.264728
      3          6           0       -0.739377    1.252981    0.265386
      4          6           0        0.735214    1.254691    0.266105
      5          1           0       -1.052508   -1.778198    1.152187
      6          1           0        1.052629    1.777069    1.154026
      7          7           0       -1.310029   -0.002798    0.277174
      8          7           0        1.310127    0.002299    0.277422
      9          1           0        1.060127   -1.775215    1.151197
     10          1           0       -1.060563    1.773906    1.152736
     11          8           0       -1.237242   -1.943263   -0.874470
     12          1           0       -1.709628   -2.724912   -0.599487
     13          8           0        1.231636   -1.949580   -0.875108
     14          1           0        1.948278   -2.523894   -0.615991
     15          8           0        1.243216    1.940416   -0.871762
     16          1           0        1.643591    2.763335   -0.602970
     17          8           0       -1.239086    1.946248   -0.872589
     18          1           0       -1.873667    2.603362   -0.597203
     19          7           0       -2.706971   -0.005553    0.318400
     20          8           0       -3.301445   -0.009188   -0.712678
     21          8           0       -3.212964   -0.000987    1.402946
     22          7           0        2.707062    0.004334    0.318918
     23          8           0        3.301659    0.011923   -0.712217
     24          8           0        3.213117   -0.007214    1.403299
 ---------------------------------------------------------------------
 Rotational constants (GHZ):      1.0069723      0.4152376      0.3527840
 Standard basis: 6-31G(d) (6D, 7F)
 There are   256 symmetry adapted cartesian basis functions of A   symmetry.
 There are   256 symmetry adapted basis functions of A   symmetry.
   256 basis functions,   480 primitive gaussians,   256 cartesian basis functions
    62 alpha electrons       62 beta electrons
       nuclear repulsion energy      1340.4661334005 Hartrees.
 NAtoms=   24 NActive=   24 NUniq=   24 SFac= 1.00D+00 NAtFMM=   60 NAOKFM=F Big=F
 Integral buffers will be    131072 words long.
 Raffenetti 1 integral format.
 Two-electron integral symmetry is turned on.
 One-electron integrals computed using PRISM.
 NBasis=   256 RedAO= T EigKep=  6.04D-04  NBF=   256
 NBsUse=   256 1.00D-06 EigRej= -1.00D+00 NBFU=   256
 Initial guess from the checkpoint file:  "toh-pai-qin.chk"
 B after Tr=    -0.000000   -0.000000    0.000000
         Rot=    1.000000    0.000404   -0.000029    0.000716 Ang=   0.09 deg.
 ExpMin= 1.61D-01 ExpMax= 5.48D+03 ExpMxC= 8.25D+02 IAcc=1 IRadAn=         1 AccDes= 0.00D+00
 Harris functional with IExCor=  205 and IRadAn=       1 diagonalized for initial guess.
 HarFok:  IExCor=  205 AccDes= 0.00D+00 IRadAn=         1 IDoV= 1 UseB2=F ITyADJ=14
 ICtDFT=  3500011 ScaDFX=  1.000000  1.000000  1.000000  1.000000
 FoFCou: FMM=F IPFlag=           0 FMFlag=      100000 FMFlg1=           0
         NFxFlg=           0 DoJE=T BraDBF=F KetDBF=T FulRan=T
         wScrn=  0.000000 ICntrl=     500 IOpCl=  0 I1Cent=   200000004 NGrid=           0
         NMat0=    1 NMatS0=      1 NMatT0=    0 NMatD0=    1 NMtDS0=    0 NMtDT0=    0
 Petite list used in FoFCou.
 Requested convergence on RMS density matrix=1.00D-08 within 128 cycles.
 Requested convergence on MAX density matrix=1.00D-06.
 Requested convergence on             energy=1.00D-06.
 No special actions if energy rises.
 Integral accuracy reduced to 1.0D-05 until final iterations.
 Initial convergence to 1.0D-05 achieved.  Increase integral accuracy.
 SCF Done:  E(RHF) =  -972.364366022     A.U. after   14 cycles
            NFock= 14  Conv=0.75D-08     -V/T= 2.0015
 Calling FoFJK, ICntrl=      2127 FMM=F ISym2X=0 I1Cent= 0 IOpClX= 0 NMat=1 NMatS=1 NMatT=0.
 ***** Axes restored to original set *****
 -------------------------------------------------------------------
 Center     Atomic                   Forces (Hartrees/Bohr)
 Number     Number              X              Y              Z
 -------------------------------------------------------------------
      1        6           0.014399392   -0.070001869    0.027180704
      2        6           0.068340208    0.018718314    0.027257666
      3        6          -0.014258532    0.069039512    0.026257566
      4        6          -0.067302822   -0.018259562    0.027367332
      5        1           0.007169879   -0.000870078   -0.002896176
      6        1          -0.007294552    0.000777265   -0.002947298
      7        7           0.009218024    0.014478525   -0.005021451
      8        7          -0.010449606   -0.013977818   -0.005066428
      9        1           0.004121698   -0.005648763   -0.002924972
     10        1          -0.004157180    0.005639007   -0.003025233
     11        8           0.002246388   -0.001834925   -0.022870067
     12        1          -0.007702090   -0.002166717    0.003486589
     13        8           0.006104160    0.000276725   -0.022550302
     14        1          -0.001475594    0.007768604    0.002814538
     15        8          -0.002433776    0.002026847   -0.022898367
     16        1           0.007779051    0.001725577    0.003518795
     17        8          -0.006551523   -0.000094853   -0.022625992
     18        1           0.002196279   -0.007584741    0.003084484
     19        7           0.012558675    0.020198213    0.013562590
     20        8          -0.007800785   -0.012146598   -0.017570382
     21        8          -0.004340615   -0.007514070    0.000050467
     22        7          -0.012784134   -0.019740237    0.012947103
     23        8           0.008125312    0.011608691   -0.017352572
     24        8           0.004292140    0.007582950    0.000221408
 -------------------------------------------------------------------
 Cartesian Forces:  Max     0.070001869 RMS     0.020024900

 GradGradGradGradGradGradGradGradGradGradGradGradGradGradGradGradGradGrad
 Berny optimization.
 Using GEDIIS/GDIIS optimizer.
 FormGI is forming the generalized inverse of G from B-inverse, IUseBI=4.
 Internal  Forces:  Max     0.055923575 RMS     0.013278050
 Search for a local minimum.
 Step number   2 out of a maximum of  136
 All quantities printed in internal units (Hartrees-Bohrs-Radians)
 Mixed Optimization -- RFO/linear search
 Update second derivatives using D2CorX and points    1    2
 DE= -6.73D-02 DEPred=-7.85D-02 R= 8.57D-01
 TightC=F SS=  1.41D+00  RLast= 3.24D-01 DXNew= 5.0454D-01 9.7296D-01
 Trust test= 8.57D-01 RLast= 3.24D-01 DXMaxT set to 5.05D-01
 ITU=  1  0
 Use linear search instead of GDIIS.
     Eigenvalues ---    0.01294   0.01295   0.01295   0.01295   0.01295
     Eigenvalues ---    0.01295   0.01295   0.01296   0.02189   0.02208
     Eigenvalues ---    0.02287   0.02424   0.02517   0.04750   0.04948
     Eigenvalues ---    0.05905   0.06136   0.06444   0.06720   0.07042
     Eigenvalues ---    0.07185   0.08238   0.08599   0.08766   0.08974
     Eigenvalues ---    0.14634   0.15846   0.16000   0.16000   0.16000
     Eigenvalues ---    0.16002   0.17171   0.19300   0.20045   0.21640
     Eigenvalues ---    0.24093   0.24994   0.24999   0.24999   0.25000
     Eigenvalues ---    0.25000   0.26161   0.37230   0.37230   0.37230
     Eigenvalues ---    0.37259   0.38843   0.40989   0.40989   0.40990
     Eigenvalues ---    0.41591   0.45584   0.45621   0.50553   0.52253
     Eigenvalues ---    0.55468   0.55473   0.55473   0.55502   0.56402
     Eigenvalues ---    0.57719   0.65225   1.04319   1.05155   1.05157
     Eigenvalues ---    1.05218
 RFO step:  Lambda=-3.99508252D-02 EMin= 1.29439427D-02
 Quartic linear search produced a step of  1.11203.
 Iteration  1 RMS(Cart)=  0.12155923 RMS(Int)=  0.00469429
 Iteration  2 RMS(Cart)=  0.00726777 RMS(Int)=  0.00095866
 Iteration  3 RMS(Cart)=  0.00001524 RMS(Int)=  0.00095863
 Iteration  4 RMS(Cart)=  0.00000002 RMS(Int)=  0.00095863
 Variable       Old X    -DE/DX   Delta X   Delta X   Delta X     New X
                                 (Linear)    (Quad)   (Total)
    R1        2.78449   0.05592   0.15149   0.01387   0.16538   2.94987
    R2        2.60795   0.05339   0.08904   0.05076   0.13980   2.74775
    R3        2.03685   0.00634   0.01650   0.00768   0.02418   2.06103
    R4        2.68916  -0.01899  -0.01463  -0.06660  -0.08123   2.60793
    R5        2.03685   0.00642   0.01651   0.00810   0.02461   2.06146
    R6        2.60510   0.05195   0.08587   0.05044   0.13633   2.74143
    R7        2.68800  -0.01900  -0.01591  -0.06478  -0.08069   2.60731
    R8        2.78657   0.05555   0.15381   0.00855   0.16233   2.94890
    R9        2.60670   0.05275   0.08764   0.05046   0.13810   2.74481
   R10        2.03698   0.00643   0.01665   0.00794   0.02459   2.06157
   R11        2.68934  -0.01878  -0.01442  -0.06593  -0.08035   2.60899
   R12        2.03708   0.00657   0.01676   0.00845   0.02522   2.06230
   R13        2.60422   0.05151   0.08488   0.05032   0.13518   2.73940
   R14        2.68782  -0.01898  -0.01611  -0.06435  -0.08046   2.60736
   R15        2.64099   0.00081  -0.00514   0.01096   0.00582   2.64681
   R16        2.64099   0.00077  -0.00514   0.01079   0.00565   2.64664
   R17        1.80242  -0.00843  -0.01302  -0.01056  -0.02358   1.77884
   R18        1.80323  -0.00837  -0.01213  -0.01166  -0.02379   1.77944
   R19        1.80243  -0.00832  -0.01302  -0.01019  -0.02321   1.77923
   R20        1.80301  -0.00845  -0.01237  -0.01159  -0.02397   1.77904
   R21        2.24912  -0.02244  -0.01925  -0.01519  -0.03443   2.21469
   R22        2.26159  -0.00368  -0.00537   0.00069  -0.00467   2.25692
   R23        2.24936  -0.02207  -0.01897  -0.01487  -0.03385   2.21552
   R24        2.26145  -0.00392  -0.00553   0.00048  -0.00505   2.25640
    A1        1.99876  -0.00732  -0.02340  -0.01539  -0.03856   1.96020
    A2        1.87270   0.00110  -0.00773  -0.00528  -0.01418   1.85852
    A3        1.92418  -0.00086   0.04951  -0.07591  -0.02675   1.89743
    A4        1.88490   0.00091   0.00608  -0.00434   0.00094   1.88584
    A5        1.88520   0.01064   0.00641   0.11322   0.11977   2.00497
    A6        1.89559  -0.00467  -0.03334  -0.01313  -0.04773   1.84785
    A7        1.87093   0.00054  -0.00970  -0.00822  -0.01853   1.85240
    A8        2.00019  -0.00747  -0.02182  -0.02036  -0.04229   1.95789
    A9        1.93217   0.00227   0.05840  -0.05590   0.00259   1.93476
   A10        1.88619   0.00148   0.00751   0.00127   0.00779   1.89397
   A11        1.89735  -0.00458  -0.03137  -0.01194  -0.04380   1.85356
   A12        1.87461   0.00758  -0.00537   0.09495   0.08958   1.96419
   A13        1.99846  -0.00716  -0.02374  -0.01428  -0.03788   1.96058
   A14        1.87235   0.00092  -0.00812  -0.00594  -0.01512   1.85724
   A15        1.92939  -0.00032   0.05531  -0.07919  -0.02420   1.90519
   A16        1.88563   0.00106   0.00688  -0.00384   0.00221   1.88783
   A17        1.88079   0.00998   0.00151   0.11420   0.11587   1.99666
   A18        1.89464  -0.00465  -0.03440  -0.01142  -0.04706   1.84758
   A19        1.87069   0.00046  -0.00997  -0.00828  -0.01882   1.85187
   A20        1.99998  -0.00728  -0.02204  -0.01916  -0.04134   1.95864
   A21        1.93620   0.00241   0.06289  -0.06122   0.00182   1.93803
   A22        1.88682   0.00156   0.00821   0.00102   0.00826   1.89508
   A23        1.89669  -0.00452  -0.03211  -0.01013  -0.04280   1.85389
   A24        1.87099   0.00721  -0.00939   0.09787   0.08845   1.95944
   A25        2.28438   0.01463   0.04538   0.03473   0.07973   2.36411
   A26        1.99942  -0.00711  -0.02267  -0.01613  -0.03992   1.95950
   A27        1.99935  -0.00754  -0.02274  -0.01911  -0.04296   1.95640
   A28        2.28419   0.01454   0.04516   0.03461   0.07935   2.36354
   A29        1.99922  -0.00789  -0.02289  -0.02150  -0.04548   1.95374
   A30        1.99975  -0.00667  -0.02231  -0.01362  -0.03703   1.96271
   A31        1.91804   0.00172   0.00768   0.00604   0.01372   1.93176
   A32        1.91447   0.00093   0.00371   0.00396   0.00767   1.92213
   A33        1.91817   0.00178   0.00782   0.00653   0.01435   1.93252
   A34        1.91585   0.00120   0.00524   0.00442   0.00966   1.92551
   A35        2.06430   0.00048  -0.00229   0.00693   0.00456   2.06886
   A36        2.03682  -0.00913  -0.03283  -0.01628  -0.04919   1.98763
   A37        2.18207   0.00864   0.03512   0.00931   0.04435   2.22641
   A38        2.06417   0.00040  -0.00243   0.00652   0.00382   2.06799
   A39        2.03709  -0.00901  -0.03253  -0.01591  -0.04871   1.98838
   A40        2.18192   0.00860   0.03495   0.00923   0.04391   2.22583
    D1       -2.09217   0.00253   0.01235   0.01546   0.02698  -2.06519
    D2        0.00087   0.00014   0.00097  -0.00139  -0.00036   0.00052
    D3        2.12417   0.00646   0.02324   0.06587   0.08848   2.21265
    D4       -0.00039  -0.00009  -0.00043  -0.00329  -0.00389  -0.00428
    D5        2.09266  -0.00247  -0.01181  -0.02014  -0.03123   2.06143
    D6       -2.06723   0.00385   0.01046   0.04712   0.05761  -2.00963
    D7        2.06096  -0.00552  -0.01743  -0.06388  -0.08137   1.97960
    D8       -2.12918  -0.00790  -0.02881  -0.08073  -0.10870  -2.23788
    D9       -0.00589  -0.00158  -0.00655  -0.01347  -0.01987  -0.02576
   D10       -0.02385  -0.00188  -0.02653   0.00437  -0.02138  -0.04524
   D11        3.10859  -0.00469  -0.03671  -0.07021  -0.10736   3.00122
   D12       -2.10882   0.00069  -0.00604   0.02384   0.01890  -2.08992
   D13        1.02362  -0.00212  -0.01622  -0.05075  -0.06708   0.95654
   D14        2.12730   0.00003   0.02659  -0.01875   0.00789   2.13520
   D15       -1.02344  -0.00278   0.01641  -0.09333  -0.07809  -1.10153
   D16       -2.37076  -0.00039  -0.00151   0.02052   0.01943  -2.35133
   D17        1.71662   0.00205  -0.00856   0.01246   0.00230   1.71892
   D18       -0.32353  -0.00230  -0.00132  -0.03680  -0.03693  -0.36046
   D19        0.02289   0.00171   0.02545  -0.00350   0.02106   0.04395
   D20       -3.10951   0.00454   0.03568   0.07077   0.10699  -3.00252
   D21        2.10742  -0.00128   0.00448  -0.02592  -0.02252   2.08490
   D22       -1.02498   0.00155   0.01470   0.04834   0.06341  -0.96157
   D23       -2.13156  -0.00189  -0.03133   0.01078  -0.02067  -2.15223
   D24        1.01922   0.00094  -0.02111   0.08505   0.06527   1.08449
   D25        2.01244  -0.00055  -0.00355  -0.05864  -0.06339   1.94905
   D26       -0.03828   0.00024  -0.00763  -0.00911  -0.01731  -0.05558
   D27       -2.07516  -0.00319   0.00324  -0.05535  -0.05033  -2.12549
   D28       -2.09273   0.00236   0.01172   0.01427   0.02524  -2.06750
   D29        0.00081   0.00013   0.00090  -0.00218  -0.00118  -0.00037
   D30        2.12229   0.00619   0.02115   0.06576   0.08632   2.20861
   D31       -0.00047  -0.00010  -0.00052  -0.00362  -0.00428  -0.00475
   D32        2.09307  -0.00233  -0.01135  -0.02007  -0.03069   2.06238
   D33       -2.06863   0.00373   0.00891   0.04787   0.05680  -2.01183
   D34        2.06241  -0.00534  -0.01582  -0.06473  -0.08057   1.98184
   D35       -2.12724  -0.00757  -0.02665  -0.08118  -0.10699  -2.23422
   D36       -0.00575  -0.00150  -0.00639  -0.01325  -0.01949  -0.02524
   D37       -0.02377  -0.00187  -0.02644   0.00531  -0.02033  -0.04411
[...]
 Largest concise Abelian subgroup C1      NOp   1
                         Standard orientation:                         
 ---------------------------------------------------------------------
 Center     Atomic      Atomic             Coordinates (Angstroms)
 Number     Number       Type             X           Y           Z
 ---------------------------------------------------------------------
      1          6           0        0.845890   -1.235747    0.135477
      2          6           0       -0.632739   -1.248281   -0.295340
      3          6           0       -0.846032    1.235807    0.136204
      4          6           0        0.632911    1.249236   -0.294350
      5          1           0       -1.069143   -2.155009    0.083037
      6          1           0        1.069279    2.154794    0.086666
      7          7           0       -1.292118   -0.139452    0.357070
      8          7           0        1.292158    0.139020    0.356985
      9          1           0        0.929382   -1.744110    1.082955
     10          1           0       -0.929898    1.743513    1.083957
     11          8           0       -0.814323   -1.160216   -1.660274
     12          1           0       -0.018751   -1.431931   -2.104945
     13          8           0        1.540468   -1.902350   -0.850582
     14          1           0        2.428234   -2.070226   -0.556229
     15          8           0        0.815969    1.166425   -1.659101
     16          1           0        0.013856    1.417174   -2.104160
     17          8           0       -1.541359    1.901950   -0.849473
     18          1           0       -2.429206    2.068974   -0.554898
     19          7           0       -2.575317   -0.289425    0.747760
     20          8           0       -3.167385    0.719931    1.021351
     21          8           0       -3.022370   -1.386583    0.827091
     22          7           0        2.575300    0.288253    0.747901
     23          8           0        3.167203   -0.721626    1.020130
     24          8           0        3.022535    1.385214    0.828815
 ---------------------------------------------------------------------
 Rotational constants (GHZ):      0.9319130      0.4261750      0.3805975

 **********************************************************************

            Population analysis using the SCF density.

 **********************************************************************

 Orbital symmetries:
       Occupied  (A) (A) (A) (A) (A) (A) (A) (A) (A) (A) (A) (A)
                 (A) (A) (A) (A) (A) (A) (A) (A) (A) (A) (A) (A)
                 (A) (A) (A) (A) (A) (A) (A) (A) (A) (A) (A) (A)
                 (A) (A) (A) (A) (A) (A) (A) (A) (A) (A) (A) (A)
                 (A) (A) (A) (A) (A) (A) (A) (A) (A) (A) (A) (A)
                 (A) (A)
       Virtual   (A) (A) (A) (A) (A) (A) (A) (A) (A) (A) (A) (A)
                 (A) (A) (A) (A) (A) (A) (A) (A) (A) (A) (A) (A)
                 (A) (A) (A) (A) (A) (A) (A) (A) (A) (A) (A) (A)
                 (A) (A) (A) (A) (A) (A) (A) (A) (A) (A) (A) (A)
                 (A) (A) (A) (A) (A) (A) (A) (A) (A) (A) (A) (A)
                 (A) (A) (A) (A) (A) (A) (A) (A) (A) (A) (A) (A)
                 (A) (A) (A) (A) (A) (A) (A) (A) (A) (A) (A) (A)
                 (A) (A) (A) (A) (A) (A) (A) (A) (A) (A) (A) (A)
                 (A) (A) (A) (A) (A) (A) (A) (A) (A) (A) (A) (A)
                 (A) (A) (A) (A) (A) (A) (A) (A) (A) (A) (A) (A)
                 (A) (A) (A) (A) (A) (A) (A) (A) (A) (A) (A) (A)
                 (A) (A) (A) (A) (A) (A) (A) (A) (A) (A) (A) (A)
                 (A) (A) (A) (A) (A) (A) (A) (A) (A) (A) (A) (A)
                 (A) (A) (A) (A) (A) (A) (A) (A) (A) (A) (A) (A)
                 (A) (A) (A) (A) (A) (A) (A) (A) (A) (A) (A) (A)
                 (A) (A) (A) (A) (A) (A) (A) (A) (A) (A) (A) (A)
                 (A) (A)
 The electronic state is 1-A.
 Alpha  occ. eigenvalues --  -20.62871 -20.62853 -20.62494 -20.62476 -20.61542
 Alpha  occ. eigenvalues --  -20.61537 -20.59246 -20.59192 -15.92065 -15.92046
 Alpha  occ. eigenvalues --  -15.67564 -15.67541 -11.37743 -11.37732 -11.37013
 Alpha  occ. eigenvalues --  -11.36995  -1.68513  -1.68458  -1.46824  -1.46039
 Alpha  occ. eigenvalues --   -1.45391  -1.44041  -1.41445  -1.40876  -1.33335
 Alpha  occ. eigenvalues --   -1.30982  -1.08668  -1.07225  -0.97630  -0.94825
 Alpha  occ. eigenvalues --   -0.88975  -0.84089  -0.83818  -0.80844  -0.80540
 Alpha  occ. eigenvalues --   -0.79250  -0.78085  -0.77380  -0.76256  -0.76232
 Alpha  occ. eigenvalues --   -0.74106  -0.72950  -0.70016  -0.67117  -0.66473
 Alpha  occ. eigenvalues --   -0.64750  -0.61371  -0.61107  -0.57674  -0.56941
 Alpha  occ. eigenvalues --   -0.54971  -0.53566  -0.52288  -0.51775  -0.51678
 Alpha  occ. eigenvalues --   -0.51129  -0.49745  -0.48950  -0.48637  -0.48041
 Alpha  occ. eigenvalues --   -0.47248  -0.45250
 Alpha virt. eigenvalues --    0.09735   0.11254   0.20686   0.22308   0.23754
 Alpha virt. eigenvalues --    0.25402   0.26480   0.28354   0.29168   0.30100
 Alpha virt. eigenvalues --    0.32126   0.33172   0.35844   0.36906   0.37640
 Alpha virt. eigenvalues --    0.39174   0.40042   0.42182   0.47618   0.48363
 Alpha virt. eigenvalues --    0.50513   0.52611   0.54587   0.57760   0.61094
 Alpha virt. eigenvalues --    0.64633   0.69823   0.73225   0.73488   0.74688
 Alpha virt. eigenvalues --    0.75502   0.78779   0.79990   0.81637   0.81678
 Alpha virt. eigenvalues --    0.82219   0.86706   0.87633   0.89588   0.90873
 Alpha virt. eigenvalues --    0.90885   0.93174   0.93854   0.97417   0.97450
 Alpha virt. eigenvalues --    1.00601   1.01892   1.02983   1.04535   1.05041
 Alpha virt. eigenvalues --    1.05129   1.07436   1.08041   1.09365   1.09623
 Alpha virt. eigenvalues --    1.11158   1.13272   1.14843   1.15092   1.18927
 Alpha virt. eigenvalues --    1.19743   1.20670   1.21840   1.22258   1.23884
 Alpha virt. eigenvalues --    1.23987   1.25744   1.26415   1.26646   1.27459
 Alpha virt. eigenvalues --    1.29110   1.30104   1.31603   1.31720   1.33279
 Alpha virt. eigenvalues --    1.34277   1.40166   1.40273   1.41952   1.44999
 Alpha virt. eigenvalues --    1.46657   1.47310   1.48481   1.51532   1.52411
 Alpha virt. eigenvalues --    1.56995   1.58562   1.58696   1.63821   1.64595
 Alpha virt. eigenvalues --    1.66105   1.68404   1.71508   1.72781   1.73437
 Alpha virt. eigenvalues --    1.74947   1.82272   1.87014   1.87153   1.88654
 Alpha virt. eigenvalues --    1.90679   1.91035   1.93673   1.94314   1.98326
 Alpha virt. eigenvalues --    2.00946   2.01443   2.01462   2.02951   2.04152
 Alpha virt. eigenvalues --    2.04917   2.05589   2.06439   2.07679   2.10143
 Alpha virt. eigenvalues --    2.11721   2.13518   2.14411   2.17122   2.17336
 Alpha virt. eigenvalues --    2.22687   2.25120   2.26508   2.27445   2.30603
 Alpha virt. eigenvalues --    2.31589   2.32507   2.33701   2.36533   2.36581
 Alpha virt. eigenvalues --    2.38947   2.40771   2.41115   2.42234   2.42345
 Alpha virt. eigenvalues --    2.45739   2.49037   2.52047   2.52972   2.54105
 Alpha virt. eigenvalues --    2.61008   2.61250   2.63541   2.64654   2.69795
 Alpha virt. eigenvalues --    2.75594   2.77984   2.78592   2.78871   2.82228
 Alpha virt. eigenvalues --    2.85158   2.87774   2.88574   2.90425   2.91239
 Alpha virt. eigenvalues --    2.94598   2.96759   3.03022   3.04124   3.05603
 Alpha virt. eigenvalues --    3.09403   3.11446   3.12815   3.14385   3.18370
 Alpha virt. eigenvalues --    3.20602   3.20941   3.21166   3.21516   3.24280
 Alpha virt. eigenvalues --    3.25927   3.28721   3.31474   3.34981   3.53007
 Alpha virt. eigenvalues --    3.54458   3.58267   3.62600   4.01539   4.10975
 Alpha virt. eigenvalues --    4.14990   4.20671   4.23921   4.27205   4.29363
 Alpha virt. eigenvalues --    4.47010   4.51110   4.55081   4.56295   4.64974
 Alpha virt. eigenvalues --    4.81719   4.89739   5.11242   5.40638
          Condensed to atoms (all electrons):
               1          2          3          4          5          6
     1  C    4.614862   0.362991  -0.011570  -0.025916  -0.044159   0.001786
     2  C    0.362991   4.685082  -0.025958  -0.016770   0.428430   0.000037
     3  C   -0.011570  -0.025958   4.615064   0.363724   0.001780  -0.043953
     4  C   -0.025916  -0.016770   0.363724   4.682920   0.000044   0.428649
     5  H   -0.044159   0.428430   0.001780   0.000044   0.426275   0.000010
     6  H    0.001786   0.000037  -0.043953   0.428649   0.000010   0.426154
     7  N   -0.045033   0.158615   0.127384  -0.012675  -0.045617   0.003374
     8  N    0.127327  -0.012386  -0.044865   0.157456   0.003379  -0.045975
     9  H    0.432813  -0.042819   0.000520   0.003015  -0.001932  -0.000033
    10  H    0.000518   0.003022   0.432721  -0.042726  -0.000033  -0.001954
    11  O   -0.044291   0.235029   0.006933   0.004946  -0.034230   0.000027
    12  H   -0.008173  -0.027326  -0.000128   0.000265   0.001876   0.000020
    13  O    0.246106  -0.048478   0.000113   0.001242   0.001374  -0.000081
    14  H   -0.017797   0.004854  -0.000020  -0.000379  -0.000188   0.000001
    15  O    0.007027   0.004877  -0.043711   0.236085   0.000025  -0.034303
    16  H   -0.000127   0.000284  -0.008155  -0.027658   0.000021   0.001964
    17  O    0.000116   0.001223   0.246229  -0.048558  -0.000081   0.001368
    18  H   -0.000020  -0.000379  -0.017793   0.004850   0.000001  -0.000188
    19  N    0.003732  -0.041225  -0.040609   0.002497  -0.004145  -0.000068
    20  O   -0.000101   0.002960   0.009669   0.000945   0.000201   0.000000
    21  O    0.000179   0.000479   0.003593  -0.000053   0.005805   0.000000
    22  N   -0.040697   0.002501   0.003724  -0.041166  -0.000069  -0.004120
    23  O    0.009697   0.000950  -0.000101   0.002949   0.000000   0.000200
    24  O    0.003599  -0.000053   0.000180   0.000401   0.000000   0.005785
               7          8          9         10         11         12
     1  C   -0.045033   0.127327   0.432813   0.000518  -0.044291  -0.008173
     2  C    0.158615  -0.012386  -0.042819   0.003022   0.235029  -0.027326
     3  C    0.127384  -0.044865   0.000520   0.432721   0.006933  -0.000128
     4  C   -0.012675   0.157456   0.003015  -0.042726   0.004946   0.000265
     5  H   -0.045617   0.003379  -0.001932  -0.000033  -0.034230   0.001876
     6  H    0.003374  -0.045975  -0.000033  -0.001954   0.000027   0.000020
     7  N    7.641750  -0.025208   0.004038  -0.061896  -0.080406   0.004736
     8  N   -0.025208   7.643253  -0.061957   0.004032  -0.002871   0.000394
     9  H    0.004038  -0.061957   0.480678  -0.000091   0.002621   0.000585
    10  H   -0.061896   0.004032  -0.000091   0.480317  -0.000115   0.000006
    11  O   -0.080406  -0.002871   0.002621  -0.000115   8.405773   0.263468
    12  H    0.004736   0.000394   0.000585   0.000006   0.263468   0.251927
    13  O    0.001453  -0.068667  -0.038806   0.000002  -0.007386   0.014886
    14  H   -0.000105  -0.001583  -0.004245   0.000000   0.000046  -0.000244
    15  O   -0.002886  -0.080536  -0.000115   0.002611  -0.006610   0.002472
    16  H    0.000385   0.004679   0.000006   0.000591   0.002649  -0.000075
    17  O   -0.068845   0.001451   0.000002  -0.038729   0.000068  -0.000007
    18  H   -0.001600  -0.000105   0.000000  -0.004243   0.000072  -0.000002
    19  N    0.237373  -0.000408  -0.000196  -0.002382   0.002003  -0.000142
    20  O   -0.122074  -0.000019   0.000003  -0.000132   0.000009   0.000002
    21  O   -0.123073  -0.000015   0.000050   0.000028   0.000204  -0.000018
    22  N   -0.000410   0.237624  -0.002368  -0.000196  -0.000079  -0.000040
    23  O   -0.000019  -0.122098  -0.000153   0.000003  -0.000004   0.000001
    24  O   -0.000015  -0.123018   0.000029   0.000050   0.000000  -0.000000
              13         14         15         16         17         18
     1  C    0.246106  -0.017797   0.007027  -0.000127   0.000116  -0.000020
     2  C   -0.048478   0.004854   0.004877   0.000284   0.001223  -0.000379
     3  C    0.000113  -0.000020  -0.043711  -0.008155   0.246229  -0.017793
     4  C    0.001242  -0.000379   0.236085  -0.027658  -0.048558   0.004850
     5  H    0.001374  -0.000188   0.000025   0.000021  -0.000081   0.000001
     6  H   -0.000081   0.000001  -0.034303   0.001964   0.001368  -0.000188
     7  N    0.001453  -0.000105  -0.002886   0.000385  -0.068845  -0.001600
     8  N   -0.068667  -0.001583  -0.080536   0.004679   0.001451  -0.000105
     9  H   -0.038806  -0.004245  -0.000115   0.000006   0.000002   0.000000
    10  H    0.000002   0.000000   0.002611   0.000591  -0.038729  -0.004243
    11  O   -0.007386   0.000046  -0.006610   0.002649   0.000068   0.000072
    12  H    0.014886  -0.000244   0.002472  -0.000075  -0.000007  -0.000002
    13  O    8.413269   0.260814   0.000062  -0.000009   0.000002  -0.000000
    14  H    0.260814   0.252039   0.000072  -0.000002  -0.000000  -0.000000
    15  O    0.000062   0.000072   8.404488   0.263586  -0.007405   0.000049
    16  H   -0.000009  -0.000002   0.263586   0.251699   0.014810  -0.000249
    17  O    0.000002  -0.000000  -0.007405   0.014810   8.412798   0.260808
    18  H   -0.000000  -0.000000   0.000049  -0.000249   0.260808   0.252137
    19  N   -0.000021   0.000002  -0.000078  -0.000041   0.003096  -0.000008
    20  O    0.000000  -0.000000  -0.000004   0.000001  -0.009103   0.013415
    21  O    0.000001   0.000000   0.000000  -0.000000   0.000000  -0.000010
    22  N    0.003085  -0.000014   0.001972  -0.000142  -0.000021   0.000002
    23  O   -0.009107   0.013425   0.000009   0.000002   0.000000  -0.000000
    24  O    0.000000  -0.000010   0.000204  -0.000018   0.000001   0.000000
              19         20         21         22         23         24
     1  C    0.003732  -0.000101   0.000179  -0.040697   0.009697   0.003599
     2  C   -0.041225   0.002960   0.000479   0.002501   0.000950  -0.000053
     3  C   -0.040609   0.009669   0.003593   0.003724  -0.000101   0.000180
     4  C    0.002497   0.000945  -0.000053  -0.041166   0.002949   0.000401
     5  H   -0.004145   0.000201   0.005805  -0.000069   0.000000   0.000000
     6  H   -0.000068   0.000000   0.000000  -0.004120   0.000200   0.005785
     7  N    0.237373  -0.122074  -0.123073  -0.000410  -0.000019  -0.000015
     8  N   -0.000408  -0.000019  -0.000015   0.237624  -0.122098  -0.123018
     9  H   -0.000196   0.000003   0.000050  -0.002368  -0.000153   0.000029
    10  H   -0.002382  -0.000132   0.000028  -0.000196   0.000003   0.000050
    11  O    0.002003   0.000009   0.000204  -0.000079  -0.000004   0.000000
    12  H   -0.000142   0.000002  -0.000018  -0.000040   0.000001  -0.000000
    13  O   -0.000021   0.000000   0.000001   0.003085  -0.009107   0.000000
    14  H    0.000002  -0.000000   0.000000  -0.000014   0.013425  -0.000010
    15  O   -0.000078  -0.000004   0.000000   0.001972   0.000009   0.000204
    16  H   -0.000041   0.000001  -0.000000  -0.000142   0.000002  -0.000018
    17  O    0.003096  -0.009103   0.000000  -0.000021   0.000000   0.000001
    18  H   -0.000008   0.013415  -0.000010   0.000002  -0.000000   0.000000
    19  N    5.190559   0.363490   0.400282   0.000011  -0.000000  -0.000000
    20  O    0.363490   8.373263  -0.101113  -0.000000   0.000000  -0.000000
    21  O    0.400282  -0.101113   8.291317  -0.000000  -0.000000  -0.000000
    22  N    0.000011  -0.000000  -0.000000   5.190301   0.363475   0.400274
    23  O   -0.000000   0.000000  -0.000000   0.363475   8.373528  -0.101090
    24  O   -0.000000  -0.000000  -0.000000   0.400274  -0.101090   8.291341
 Mulliken charges:
               1
     1  C    0.427132
     2  C    0.324060
     3  C    0.425227
     4  C    0.325913
     5  H    0.261232
     6  H    0.261300
     7  N   -0.589246
     8  N   -0.589884
     9  H    0.228355
    10  H    0.228596
    11  O   -0.747857
    12  H    0.495516
    13  O   -0.769857
    14  H    0.493334
    15  O   -0.747892
    16  H    0.495798
    17  O   -0.769221
    18  H    0.493263
    19  N    0.886279
    20  O   -0.531413
    21  O   -0.477657
    22  N    0.886353
    23  O   -0.531669
    24  O   -0.477661
 Sum of Mulliken charges =  -0.00000
 Mulliken charges with hydrogens summed into heavy atoms:
               1
     1  C    0.655487
     2  C    0.585292
     3  C    0.653823
     4  C    0.587213
     7  N   -0.589246
     8  N   -0.589884
    11  O   -0.252341
    13  O   -0.276524
    15  O   -0.252094
    17  O   -0.275959
    19  N    0.886279
    20  O   -0.531413
    21  O   -0.477657
    22  N    0.886353
    23  O   -0.531669
    24  O   -0.477661
 Electronic spatial extent (au):  <R**2>=           3043.9654
 Charge=             -0.0000 electrons
 Dipole moment (field-independent basis, Debye):
    X=             -0.0171    Y=             -0.0366    Z=             -0.0064  Tot=              0.0409
 Quadrupole moment (field-independent basis, Debye-Ang):
   XX=           -111.9570   YY=            -86.6098   ZZ=            -92.6168
   XY=            -10.5943   XZ=              0.0209   YZ=              0.1001
 Traceless Quadrupole moment (field-independent basis, Debye-Ang):
   XX=            -14.8958   YY=             10.4514   ZZ=              4.4444
   XY=            -10.5943   XZ=              0.0209   YZ=              0.1001
 Octapole moment (field-independent basis, Debye-Ang**2):
  XXX=             -0.0508  YYY=             -0.2592  ZZZ=            -10.2929  XYY=             -0.0397
  XXY=              0.0325  XXZ=            -36.7100  XZZ=             -0.0639  YZZ=             -0.2040
  YYZ=             -0.5528  XYZ=              4.2946
 Hexadecapole moment (field-independent basis, Debye-Ang**3):
 XXXX=          -2454.9645 YYYY=           -818.7533 ZZZZ=           -462.6500 XXXY=           -112.6269
 XXXZ=             -0.0639 YYYX=            -53.9596 YYYZ=              0.6607 ZZZX=              0.1142
 ZZZY=              0.4296 XXYY=           -507.3953 XXZZ=           -493.3374 YYZZ=           -223.7447
 XXYZ=              0.0425 YYXZ=              0.0815 ZZXY=            -11.0807
 N-N= 1.349762115514D+03 E-N=-4.989123519595D+03  KE= 9.705090619482D+02
 1\1\ WCSS.PL-BEM-DESKTOP-A2B3DQ3\FOpt\RHF\6-31G(d)\C4H8N4O8\LGY\12-Jun
 -2018\0\\# hf/6-31g* opt\\Title Card Required\\0,1\C,1.5917282736,-0.0
 74733335,-0.1332004982\C,2.1858115315,1.2817733244,0.2899546119\C,-0.0
 167718367,2.451904006,-0.1364659476\C,-0.6080757253,1.0986985233,0.301
 7408905\H,3.189429634,1.3255777328,-0.0929358569\H,-1.613889382,1.0516
 128406,-0.0747532572\N,1.4222123652,2.3211943769,-0.3630700496\N,0.151
 2099249,0.0539528327,-0.3489634774\H,2.0223528255,-0.3547321287,-1.081
 5044454\H,-0.4548463723,2.7248650228,-1.0833653531\O,2.1820409244,1.48
 84828335,1.6541501789\H,2.1214063105,0.651799586,2.1022356754\O,1.9362
 554903,-0.9715917967,0.8547562757\H,1.7407215771,-1.855056384,0.564564
 7036\O,-0.5979056426,0.9029576741,1.6672054748\H,-0.5115719679,1.74076
 66529,2.1087494199\O,-0.3520518511,3.3566819506,0.8472770728\H,-0.1582
 503896,4.2376734669,0.5485470723\N,2.0623877803,3.4409083836,-0.760745
 0258\O,1.3654723176,4.3807852177,-1.0348579814\O,3.2466104207,3.420841
 7348,-0.8451260212\N,-0.4916432725,-1.0689374167,-0.7328825453\O,0.203
 4554971,-2.010919096,-1.0045832939\O,-1.6764499227,-1.0497177225,-0.80
 87445129\\Version=ES64L-G09RevE.01\State=1-A\HF=-972.5092653\RMSD=3.54
 5e-09\RMSF=1.620e-05\Dipole=0.0158871,0.0005491,0.0024498\Quadrupole=-
 0.8251406,-2.4780843,3.3032249,-12.2527334,0.1384576,0.0598132\PG=C01 
 [X(C4H8N4O8)]\\@


 THERE IS NO SCIENCE WITHOUT FANCY, NOR ART WITHOUT FACTS.
     -- VLADIMIR NABAKOV
 Job cpu time:       0 days  0 hours 57 minutes 16.6 seconds.
 File lengths (MBytes):  RWF=     43 Int=      0 D2E=      0 Chk=      6 Scr=      1
 Normal termination of Gaussian 09 at Tue Jun 12 21:13:37 2018.
