   1   1   0   0
  0.4200000E+03  0.7000000E-09  0.7500000E-09  0.8000000E-09  0.5000000E-15
   1.0000000000000000E-004
  CAR 
 O atom in a box                         
      3.82384064    -26.44400918  301     -7.32481738      1.00000000
    -26.444  0.0000E+00  0.0000E+00  0.0000E+00  0.0000E+00
    -26.343  0.0000E+00  0.0000E+00  0.0000E+00  0.0000E+00
    -26.242  0.0000E+00  0.0000E+00  0.0000E+00  0.0000E+00
    -26.141  0.0000E+00  0.0000E+00  0.0000E+00  0.0000E+00
    -26.040  0.0000E+00  0.0000E+00  0.0000E+00  0.0000E+00
    -25.940  0.0000E+00  0.0000E+00  0.0000E+00  0.0000E+00
    -25.839  0.0000E+00  0.0000E+00  0.0000E+00  0.0000E+00
    -25.738  0.0000E+00  0.0000E+00  0.0000E+00  0.0000E+00
    -25.637  0.0000E+00  0.0000E+00  0.0000E+00  0.0000E+00
    -25.536  0.0000E+00  0.0000E+00  0.0000E+00  0.0000E+00
    -25.435  0.0000E+00  0.0000E+00  0.0000E+00  0.0000E+00
    -25.334  0.0000E+00  0.0000E+00  0.0000E+00  0.0000E+00
    -25.233  0.0000E+00  0.0000E+00  0.0000E+00  0.0000E+00
    -25.132  0.0000E+00  0.0000E+00  0.0000E+00  0.0000E+00
    -25.032  0.9912E+01  0.0000E+00  0.1000E+01  0.0000E+00
    -24.931  0.0000E+00  0.0000E+00  0.1000E+01  0.0000E+00
    -24.830  0.0000E+00  0.0000E+00  0.1000E+01  0.0000E+00
    -24.729  0.0000E+00  0.0000E+00  0.1000E+01  0.0000E+00
    -24.628  0.0000E+00  0.0000E+00  0.1000E+01  0.0000E+00
    -24.527  0.0000E+00  0.0000E+00  0.1000E+01  0.0000E+00
    -24.426  0.0000E+00  0.0000E+00  0.1000E+01  0.0000E+00
    -24.325  0.0000E+00  0.0000E+00  0.1000E+01  0.0000E+00
    -24.224  0.0000E+00  0.0000E+00  0.1000E+01  0.0000E+00
    -24.123  0.0000E+00  0.0000E+00  0.1000E+01  0.0000E+00
    -24.023  0.0000E+00  0.0000E+00  0.1000E+01  0.0000E+00
    -23.922  0.0000E+00  0.0000E+00  0.1000E+01  0.0000E+00
    -23.821  0.0000E+00  0.0000E+00  0.1000E+01  0.0000E+00
    -23.720  0.0000E+00  0.0000E+00  0.1000E+01  0.0000E+00
    -23.619  0.0000E+00  0.0000E+00  0.1000E+01  0.0000E+00
    -23.518  0.0000E+00  0.0000E+00  0.1000E+01  0.0000E+00
    -23.417  0.0000E+00  0.0000E+00  0.1000E+01  0.0000E+00
    -23.316  0.0000E+00  0.0000E+00  0.1000E+01  0.0000E+00
    -23.215  0.0000E+00  0.0000E+00  0.1000E+01  0.0000E+00
    -23.115  0.0000E+00  0.0000E+00  0.1000E+01  0.0000E+00
    -23.014  0.0000E+00  0.0000E+00  0.1000E+01  0.0000E+00
    -22.913  0.0000E+00  0.0000E+00  0.1000E+01  0.0000E+00
    -22.812  0.0000E+00  0.0000E+00  0.1000E+01  0.0000E+00
    -22.711  0.0000E+00  0.0000E+00  0.1000E+01  0.0000E+00
    -22.610  0.0000E+00  0.0000E+00  0.1000E+01  0.0000E+00
    -22.509  0.0000E+00  0.0000E+00  0.1000E+01  0.0000E+00
    -22.408  0.0000E+00  0.0000E+00  0.1000E+01  0.0000E+00
    -22.307  0.0000E+00  0.0000E+00  0.1000E+01  0.0000E+00
    -22.207  0.0000E+00  0.0000E+00  0.1000E+01  0.0000E+00
    -22.106  0.0000E+00  0.0000E+00  0.1000E+01  0.0000E+00
    -22.005  0.0000E+00  0.0000E+00  0.1000E+01  0.0000E+00
    -21.904  0.0000E+00  0.0000E+00  0.1000E+01  0.0000E+00
    -21.803  0.0000E+00  0.0000E+00  0.1000E+01  0.0000E+00
    -21.702  0.0000E+00  0.0000E+00  0.1000E+01  0.0000E+00
    -21.601  0.0000E+00  0.0000E+00  0.1000E+01  0.0000E+00
    -21.500  0.0000E+00  0.0000E+00  0.1000E+01  0.0000E+00
    -21.399  0.0000E+00  0.6947E+01  0.1000E+01  0.7009E+00
    -21.298  0.0000E+00  0.0000E+00  0.1000E+01  0.1000E+01
    -21.198  0.0000E+00  0.0000E+00  0.1000E+01  0.1000E+01
    -21.097  0.0000E+00  0.0000E+00  0.1000E+01  0.1000E+01
    -20.996  0.0000E+00  0.0000E+00  0.1000E+01  0.1000E+01
    -20.895  0.0000E+00  0.0000E+00  0.1000E+01  0.1000E+01
    -20.794  0.0000E+00  0.0000E+00  0.1000E+01  0.1000E+01
    -20.693  0.0000E+00  0.0000E+00  0.1000E+01  0.1000E+01
    -20.592  0.0000E+00  0.0000E+00  0.1000E+01  0.1000E+01
    -20.491  0.0000E+00  0.0000E+00  0.1000E+01  0.1000E+01
    -20.390  0.0000E+00  0.0000E+00  0.1000E+01  0.1000E+01
    -20.290  0.0000E+00  0.0000E+00  0.1000E+01  0.1000E+01
    -20.189  0.0000E+00  0.0000E+00  0.1000E+01  0.1000E+01
    -20.088  0.0000E+00  0.0000E+00  0.1000E+01  0.1000E+01
    -19.987  0.0000E+00  0.0000E+00  0.1000E+01  0.1000E+01
    -19.886  0.0000E+00  0.0000E+00  0.1000E+01  0.1000E+01
    -19.785  0.0000E+00  0.0000E+00  0.1000E+01  0.1000E+01
    -19.684  0.0000E+00  0.0000E+00  0.1000E+01  0.1000E+01
    -19.583  0.0000E+00  0.0000E+00  0.1000E+01  0.1000E+01
    -19.482  0.0000E+00  0.0000E+00  0.1000E+01  0.1000E+01
    -19.382  0.0000E+00  0.0000E+00  0.1000E+01  0.1000E+01
    -19.281  0.0000E+00  0.0000E+00  0.1000E+01  0.1000E+01
    -19.180  0.0000E+00  0.0000E+00  0.1000E+01  0.1000E+01
    -19.079  0.0000E+00  0.0000E+00  0.1000E+01  0.1000E+01
    -18.978  0.0000E+00  0.0000E+00  0.1000E+01  0.1000E+01
    -18.877  0.0000E+00  0.0000E+00  0.1000E+01  0.1000E+01
    -18.776  0.0000E+00  0.0000E+00  0.1000E+01  0.1000E+01
    -18.675  0.0000E+00  0.0000E+00  0.1000E+01  0.1000E+01
    -18.574  0.0000E+00  0.0000E+00  0.1000E+01  0.1000E+01
    -18.473  0.0000E+00  0.0000E+00  0.1000E+01  0.1000E+01
    -18.373  0.0000E+00  0.0000E+00  0.1000E+01  0.1000E+01
    -18.272  0.0000E+00  0.0000E+00  0.1000E+01  0.1000E+01
    -18.171  0.0000E+00  0.0000E+00  0.1000E+01  0.1000E+01
    -18.070  0.0000E+00  0.0000E+00  0.1000E+01  0.1000E+01
    -17.969  0.0000E+00  0.0000E+00  0.1000E+01  0.1000E+01
    -17.868  0.0000E+00  0.0000E+00  0.1000E+01  0.1000E+01
    -17.767  0.0000E+00  0.0000E+00  0.1000E+01  0.1000E+01
    -17.666  0.0000E+00  0.0000E+00  0.1000E+01  0.1000E+01
    -17.565  0.0000E+00  0.0000E+00  0.1000E+01  0.1000E+01
    -17.465  0.0000E+00  0.0000E+00  0.1000E+01  0.1000E+01
    -17.364  0.0000E+00  0.0000E+00  0.1000E+01  0.1000E+01
    -17.263  0.0000E+00  0.0000E+00  0.1000E+01  0.1000E+01
    -17.162  0.0000E+00  0.0000E+00  0.1000E+01  0.1000E+01
    -17.061  0.0000E+00  0.0000E+00  0.1000E+01  0.1000E+01
    -16.960  0.0000E+00  0.0000E+00  0.1000E+01  0.1000E+01
    -16.859  0.0000E+00  0.0000E+00  0.1000E+01  0.1000E+01
    -16.758  0.0000E+00  0.0000E+00  0.1000E+01  0.1000E+01
    -16.657  0.0000E+00  0.0000E+00  0.1000E+01  0.1000E+01
    -16.557  0.0000E+00  0.0000E+00  0.1000E+01  0.1000E+01
    -16.456  0.0000E+00  0.0000E+00  0.1000E+01  0.1000E+01
    -16.355  0.0000E+00  0.0000E+00  0.1000E+01  0.1000E+01
    -16.254  0.0000E+00  0.0000E+00  0.1000E+01  0.1000E+01
    -16.153  0.0000E+00  0.0000E+00  0.1000E+01  0.1000E+01
    -16.052  0.0000E+00  0.0000E+00  0.1000E+01  0.1000E+01
    -15.951  0.0000E+00  0.0000E+00  0.1000E+01  0.1000E+01
    -15.850  0.0000E+00  0.0000E+00  0.1000E+01  0.1000E+01
    -15.749  0.0000E+00  0.0000E+00  0.1000E+01  0.1000E+01
    -15.648  0.0000E+00  0.0000E+00  0.1000E+01  0.1000E+01
    -15.548  0.0000E+00  0.0000E+00  0.1000E+01  0.1000E+01
    -15.447  0.0000E+00  0.0000E+00  0.1000E+01  0.1000E+01
    -15.346  0.0000E+00  0.0000E+00  0.1000E+01  0.1000E+01
    -15.245  0.0000E+00  0.0000E+00  0.1000E+01  0.1000E+01
    -15.144  0.0000E+00  0.0000E+00  0.1000E+01  0.1000E+01
    -15.043  0.0000E+00  0.0000E+00  0.1000E+01  0.1000E+01
    -14.942  0.0000E+00  0.0000E+00  0.1000E+01  0.1000E+01
    -14.841  0.0000E+00  0.0000E+00  0.1000E+01  0.1000E+01
    -14.740  0.0000E+00  0.0000E+00  0.1000E+01  0.1000E+01
    -14.640  0.0000E+00  0.0000E+00  0.1000E+01  0.1000E+01
    -14.539  0.0000E+00  0.0000E+00  0.1000E+01  0.1000E+01
    -14.438  0.0000E+00  0.0000E+00  0.1000E+01  0.1000E+01
    -14.337  0.0000E+00  0.0000E+00  0.1000E+01  0.1000E+01
    -14.236  0.0000E+00  0.0000E+00  0.1000E+01  0.1000E+01
    -14.135  0.0000E+00  0.0000E+00  0.1000E+01  0.1000E+01
    -14.034  0.0000E+00  0.0000E+00  0.1000E+01  0.1000E+01
    -13.933  0.0000E+00  0.0000E+00  0.1000E+01  0.1000E+01
    -13.832  0.0000E+00  0.0000E+00  0.1000E+01  0.1000E+01
    -13.732  0.0000E+00  0.0000E+00  0.1000E+01  0.1000E+01
    -13.631  0.0000E+00  0.0000E+00  0.1000E+01  0.1000E+01
    -13.530  0.0000E+00  0.0000E+00  0.1000E+01  0.1000E+01
    -13.429  0.0000E+00  0.0000E+00  0.1000E+01  0.1000E+01
    -13.328  0.0000E+00  0.0000E+00  0.1000E+01  0.1000E+01
    -13.227  0.0000E+00  0.0000E+00  0.1000E+01  0.1000E+01
    -13.126  0.0000E+00  0.0000E+00  0.1000E+01  0.1000E+01
    -13.025  0.0000E+00  0.0000E+00  0.1000E+01  0.1000E+01
    -12.924  0.0000E+00  0.0000E+00  0.1000E+01  0.1000E+01
    -12.823  0.0000E+00  0.0000E+00  0.1000E+01  0.1000E+01
    -12.723  0.0000E+00  0.0000E+00  0.1000E+01  0.1000E+01
    -12.622  0.0000E+00  0.0000E+00  0.1000E+01  0.1000E+01
    -12.521  0.0000E+00  0.0000E+00  0.1000E+01  0.1000E+01
    -12.420  0.0000E+00  0.0000E+00  0.1000E+01  0.1000E+01
    -12.319  0.0000E+00  0.0000E+00  0.1000E+01  0.1000E+01
    -12.218  0.0000E+00  0.0000E+00  0.1000E+01  0.1000E+01
    -12.117  0.0000E+00  0.0000E+00  0.1000E+01  0.1000E+01
    -12.016  0.0000E+00  0.0000E+00  0.1000E+01  0.1000E+01
    -11.915  0.0000E+00  0.0000E+00  0.1000E+01  0.1000E+01
    -11.815  0.0000E+00  0.0000E+00  0.1000E+01  0.1000E+01
    -11.714  0.0000E+00  0.0000E+00  0.1000E+01  0.1000E+01
    -11.613  0.0000E+00  0.0000E+00  0.1000E+01  0.1000E+01
    -11.512  0.0000E+00  0.0000E+00  0.1000E+01  0.1000E+01
    -11.411  0.0000E+00  0.0000E+00  0.1000E+01  0.1000E+01
    -11.310  0.0000E+00  0.0000E+00  0.1000E+01  0.1000E+01
    -11.209  0.0000E+00  0.0000E+00  0.1000E+01  0.1000E+01
    -11.108  0.0000E+00  0.0000E+00  0.1000E+01  0.1000E+01
    -11.007  0.0000E+00  0.0000E+00  0.1000E+01  0.1000E+01
    -10.907  0.0000E+00  0.0000E+00  0.1000E+01  0.1000E+01
    -10.806  0.0000E+00  0.0000E+00  0.1000E+01  0.1000E+01
    -10.705  0.1982E+02  0.0000E+00  0.3000E+01  0.1000E+01
    -10.604  0.0000E+00  0.0000E+00  0.3000E+01  0.1000E+01
    -10.503  0.0000E+00  0.0000E+00  0.3000E+01  0.1000E+01
    -10.402  0.0000E+00  0.0000E+00  0.3000E+01  0.1000E+01
    -10.301  0.0000E+00  0.0000E+00  0.3000E+01  0.1000E+01
    -10.200  0.0000E+00  0.0000E+00  0.3000E+01  0.1000E+01
    -10.099  0.0000E+00  0.0000E+00  0.3000E+01  0.1000E+01
     -9.998  0.0000E+00  0.0000E+00  0.3000E+01  0.1000E+01
     -9.898  0.0000E+00  0.0000E+00  0.3000E+01  0.1000E+01
     -9.797  0.0000E+00  0.0000E+00  0.3000E+01  0.1000E+01
     -9.696  0.0000E+00  0.0000E+00  0.3000E+01  0.1000E+01
     -9.595  0.0000E+00  0.0000E+00  0.3000E+01  0.1000E+01
     -9.494  0.0000E+00  0.0000E+00  0.3000E+01  0.1000E+01
     -9.393  0.0000E+00  0.0000E+00  0.3000E+01  0.1000E+01
     -9.292  0.0000E+00  0.0000E+00  0.3000E+01  0.1000E+01
     -9.191  0.0000E+00  0.0000E+00  0.3000E+01  0.1000E+01
     -9.090  0.0000E+00  0.0000E+00  0.3000E+01  0.1000E+01
     -8.990  0.0000E+00  0.0000E+00  0.3000E+01  0.1000E+01
     -8.889  0.0000E+00  0.0000E+00  0.3000E+01  0.1000E+01
     -8.788  0.0000E+00  0.0000E+00  0.3000E+01  0.1000E+01
     -8.687  0.4844E-08  0.0000E+00  0.3000E+01  0.1000E+01
     -8.586  0.9912E+01  0.0000E+00  0.4000E+01  0.1000E+01
     -8.485  0.0000E+00  0.0000E+00  0.4000E+01  0.1000E+01
     -8.384  0.0000E+00  0.0000E+00  0.4000E+01  0.1000E+01
     -8.283  0.0000E+00  0.0000E+00  0.4000E+01  0.1000E+01
     -8.182  0.0000E+00  0.0000E+00  0.4000E+01  0.1000E+01
     -8.082  0.0000E+00  0.0000E+00  0.4000E+01  0.1000E+01
     -7.981  0.0000E+00  0.0000E+00  0.4000E+01  0.1000E+01
     -7.880  0.0000E+00  0.0000E+00  0.4000E+01  0.1000E+01
     -7.779  0.0000E+00  0.0000E+00  0.4000E+01  0.1000E+01
     -7.678  0.0000E+00  0.0000E+00  0.4000E+01  0.1000E+01
     -7.577  0.0000E+00  0.0000E+00  0.4000E+01  0.1000E+01
     -7.476  0.0000E+00  0.0000E+00  0.4000E+01  0.1000E+01
     -7.375  0.0000E+00  0.9664E+01  0.4000E+01  0.1975E+01
     -7.274  0.0000E+00  0.0000E+00  0.4000E+01  0.2000E+01
     -7.173  0.0000E+00  0.0000E+00  0.4000E+01  0.2000E+01
     -7.073  0.0000E+00  0.0000E+00  0.4000E+01  0.2000E+01
     -6.972  0.0000E+00  0.0000E+00  0.4000E+01  0.2000E+01
     -6.871  0.0000E+00  0.0000E+00  0.4000E+01  0.2000E+01
     -6.770  0.0000E+00  0.0000E+00  0.4000E+01  0.2000E+01
     -6.669  0.0000E+00  0.0000E+00  0.4000E+01  0.2000E+01
     -6.568  0.0000E+00  0.0000E+00  0.4000E+01  0.2000E+01
     -6.467  0.0000E+00  0.0000E+00  0.4000E+01  0.2000E+01
     -6.366  0.0000E+00  0.0000E+00  0.4000E+01  0.2000E+01
     -6.265  0.0000E+00  0.1957E+02  0.4000E+01  0.3975E+01
     -6.165  0.0000E+00  0.0000E+00  0.4000E+01  0.4000E+01
     -6.064  0.0000E+00  0.0000E+00  0.4000E+01  0.4000E+01
     -5.963  0.0000E+00  0.0000E+00  0.4000E+01  0.4000E+01
     -5.862  0.0000E+00  0.0000E+00  0.4000E+01  0.4000E+01
     -5.761  0.0000E+00  0.0000E+00  0.4000E+01  0.4000E+01
     -5.660  0.0000E+00  0.0000E+00  0.4000E+01  0.4000E+01
     -5.559  0.0000E+00  0.0000E+00  0.4000E+01  0.4000E+01
     -5.458  0.0000E+00  0.0000E+00  0.4000E+01  0.4000E+01
     -5.357  0.0000E+00  0.0000E+00  0.4000E+01  0.4000E+01
     -5.257  0.0000E+00  0.0000E+00  0.4000E+01  0.4000E+01
     -5.156  0.0000E+00  0.0000E+00  0.4000E+01  0.4000E+01
     -5.055  0.0000E+00  0.0000E+00  0.4000E+01  0.4000E+01
     -4.954  0.0000E+00  0.0000E+00  0.4000E+01  0.4000E+01
     -4.853  0.0000E+00  0.0000E+00  0.4000E+01  0.4000E+01
     -4.752  0.0000E+00  0.0000E+00  0.4000E+01  0.4000E+01
     -4.651  0.0000E+00  0.0000E+00  0.4000E+01  0.4000E+01
     -4.550  0.0000E+00  0.0000E+00  0.4000E+01  0.4000E+01
     -4.449  0.0000E+00  0.0000E+00  0.4000E+01  0.4000E+01
     -4.348  0.0000E+00  0.0000E+00  0.4000E+01  0.4000E+01
     -4.248  0.0000E+00  0.0000E+00  0.4000E+01  0.4000E+01
     -4.147  0.0000E+00  0.0000E+00  0.4000E+01  0.4000E+01
     -4.046  0.0000E+00  0.0000E+00  0.4000E+01  0.4000E+01
     -3.945  0.0000E+00  0.0000E+00  0.4000E+01  0.4000E+01
     -3.844  0.0000E+00  0.0000E+00  0.4000E+01  0.4000E+01
     -3.743  0.0000E+00  0.0000E+00  0.4000E+01  0.4000E+01
     -3.642  0.0000E+00  0.0000E+00  0.4000E+01  0.4000E+01
     -3.541  0.0000E+00  0.0000E+00  0.4000E+01  0.4000E+01
     -3.440  0.0000E+00  0.0000E+00  0.4000E+01  0.4000E+01
     -3.340  0.0000E+00  0.0000E+00  0.4000E+01  0.4000E+01
     -3.239  0.0000E+00  0.0000E+00  0.4000E+01  0.4000E+01
     -3.138  0.0000E+00  0.0000E+00  0.4000E+01  0.4000E+01
     -3.037  0.0000E+00  0.0000E+00  0.4000E+01  0.4000E+01
     -2.936  0.0000E+00  0.0000E+00  0.4000E+01  0.4000E+01
     -2.835  0.0000E+00  0.0000E+00  0.4000E+01  0.4000E+01
     -2.734  0.0000E+00  0.0000E+00  0.4000E+01  0.4000E+01
     -2.633  0.0000E+00  0.0000E+00  0.4000E+01  0.4000E+01
     -2.532  0.0000E+00  0.0000E+00  0.4000E+01  0.4000E+01
     -2.432  0.0000E+00  0.0000E+00  0.4000E+01  0.4000E+01
     -2.331  0.0000E+00  0.0000E+00  0.4000E+01  0.4000E+01
     -2.230  0.0000E+00  0.0000E+00  0.4000E+01  0.4000E+01
     -2.129  0.0000E+00  0.0000E+00  0.4000E+01  0.4000E+01
     -2.028  0.0000E+00  0.0000E+00  0.4000E+01  0.4000E+01
     -1.927  0.0000E+00  0.0000E+00  0.4000E+01  0.4000E+01
     -1.826  0.0000E+00  0.0000E+00  0.4000E+01  0.4000E+01
     -1.725  0.0000E+00  0.0000E+00  0.4000E+01  0.4000E+01
     -1.624  0.0000E+00  0.0000E+00  0.4000E+01  0.4000E+01
     -1.523  0.0000E+00  0.0000E+00  0.4000E+01  0.4000E+01
     -1.423  0.0000E+00  0.0000E+00  0.4000E+01  0.4000E+01
     -1.322  0.0000E+00  0.0000E+00  0.4000E+01  0.4000E+01
     -1.221  0.0000E+00  0.0000E+00  0.4000E+01  0.4000E+01
     -1.120  0.0000E+00  0.0000E+00  0.4000E+01  0.4000E+01
     -1.019  0.0000E+00  0.0000E+00  0.4000E+01  0.4000E+01
     -0.918  0.0000E+00  0.0000E+00  0.4000E+01  0.4000E+01
     -0.817  0.0000E+00  0.0000E+00  0.4000E+01  0.4000E+01
     -0.716  0.0000E+00  0.0000E+00  0.4000E+01  0.4000E+01
     -0.615  0.1417E-05  0.0000E+00  0.4000E+01  0.4000E+01
     -0.515  0.9912E+01  0.0000E+00  0.5000E+01  0.4000E+01
     -0.414  0.0000E+00  0.0000E+00  0.5000E+01  0.4000E+01
     -0.313  0.0000E+00  0.9828E+01  0.5000E+01  0.4992E+01
     -0.212  0.0000E+00  0.0000E+00  0.5000E+01  0.5000E+01
     -0.111  0.0000E+00  0.0000E+00  0.5000E+01  0.5000E+01
     -0.010  0.0000E+00  0.0000E+00  0.5000E+01  0.5000E+01
      0.091  0.0000E+00  0.0000E+00  0.5000E+01  0.5000E+01
      0.192  0.0000E+00  0.0000E+00  0.5000E+01  0.5000E+01
      0.293  0.0000E+00  0.0000E+00  0.5000E+01  0.5000E+01
      0.393  0.0000E+00  0.0000E+00  0.5000E+01  0.5000E+01
      0.494  0.0000E+00  0.0000E+00  0.5000E+01  0.5000E+01
      0.595  0.0000E+00  0.0000E+00  0.5000E+01  0.5000E+01
      0.696  0.0000E+00  0.0000E+00  0.5000E+01  0.5000E+01
      0.797  0.0000E+00  0.0000E+00  0.5000E+01  0.5000E+01
      0.898  0.0000E+00  0.0000E+00  0.5000E+01  0.5000E+01
      0.999  0.0000E+00  0.0000E+00  0.5000E+01  0.5000E+01
      1.100  0.0000E+00  0.0000E+00  0.5000E+01  0.5000E+01
      1.201  0.0000E+00  0.0000E+00  0.5000E+01  0.5000E+01
      1.302  0.0000E+00  0.0000E+00  0.5000E+01  0.5000E+01
      1.402  0.0000E+00  0.0000E+00  0.5000E+01  0.5000E+01
      1.503  0.0000E+00  0.0000E+00  0.5000E+01  0.5000E+01
      1.604  0.0000E+00  0.0000E+00  0.5000E+01  0.5000E+01
      1.705  0.0000E+00  0.0000E+00  0.5000E+01  0.5000E+01
      1.806  0.5730E+01  0.0000E+00  0.5578E+01  0.5000E+01
      1.907  0.0000E+00  0.6466E+00  0.6000E+01  0.5065E+01
      2.008  0.1130E+02  0.0000E+00  0.7140E+01  0.6000E+01
      2.109  0.0000E+00  0.0000E+00  0.8000E+01  0.6000E+01
      2.210  0.0000E+00  0.9911E+01  0.8000E+01  0.7000E+01
      2.310  0.0000E+00  0.0000E+00  0.8000E+01  0.7000E+01
      2.411  0.0000E+00  0.1051E-05  0.8000E+01  0.7000E+01
      2.512  0.0000E+00  0.9912E+01  0.8000E+01  0.8000E+01
      2.613  0.0000E+00  0.0000E+00  0.8000E+01  0.8000E+01
      2.714  0.0000E+00  0.0000E+00  0.8000E+01  0.8000E+01
      2.815  0.0000E+00  0.0000E+00  0.8000E+01  0.8000E+01
      2.916  0.0000E+00  0.0000E+00  0.8000E+01  0.8000E+01
      3.017  0.0000E+00  0.0000E+00  0.8000E+01  0.8000E+01
      3.118  0.0000E+00  0.0000E+00  0.8000E+01  0.8000E+01
      3.218  0.0000E+00  0.0000E+00  0.8000E+01  0.8000E+01
      3.319  0.0000E+00  0.0000E+00  0.8000E+01  0.8000E+01
      3.420  0.0000E+00  0.0000E+00  0.8000E+01  0.8000E+01
      3.521  0.0000E+00  0.0000E+00  0.8000E+01  0.8000E+01
      3.622  0.0000E+00  0.0000E+00  0.8000E+01  0.8000E+01
      3.723  0.0000E+00  0.0000E+00  0.8000E+01  0.8000E+01
      3.824  0.0000E+00  0.0000E+00  0.8000E+01  0.8000E+01
