    1    1    1    2
  0.4200000E+03  0.7000000E-09  0.7500000E-09  0.8000000E-09  0.5000000E-15
   1.0000000000000000E-004
  CAR 
 O atom in a box                         
      6      1      8

  0.0000000E+00  0.0000000E+00  0.0000000E+00  0.1000000E+01
    1      -25.068198    -21.403095   1.000000   1.000000
    2      -10.744059     -7.389124   1.000000   1.000000
    3      -10.743337     -6.282066   1.000000   0.000000
    4       -8.643645     -6.280638   1.000000   0.000000
    5       -0.579152     -0.329669   0.000000   0.000000
    6        1.804590      1.917570   0.000000   0.000000
    7        1.995489      2.179728   0.000000   0.000000
    8        2.014204      2.448029   0.000000   0.000000
