       N       E                     dE             d eps       ncg     rms          rms(c)
DAV:   1     0.368702607298E+02    0.36870E+02   -0.96491E+02    32   0.266E+02
DAV:   2     0.250195545836E+01   -0.34368E+02   -0.34368E+02    64   0.478E+01
DAV:   3    -0.104912395673E+01   -0.35511E+01   -0.21207E+01    32   0.299E+01
DAV:   4    -0.111286497163E+01   -0.63741E-01   -0.61716E-01    32   0.455E+00
DAV:   5    -0.111361176872E+01   -0.74680E-03   -0.74503E-03    48   0.473E-01    0.654E+00
DAV:   6     0.226280719130E+00    0.13399E+01   -0.31420E+00    40   0.880E+00    0.632E+00
DAV:   7    -0.106615553240E+01   -0.12924E+01   -0.58268E-01    32   0.539E+00    0.394E+00
DAV:   8    -0.163475241149E+01   -0.56860E+00   -0.25844E-01    48   0.255E+00    0.259E+00
DAV:   9    -0.182255016926E+01   -0.18780E+00   -0.24641E-01    32   0.355E+00    0.305E-01
DAV:  10    -0.186601253751E+01   -0.43462E-01   -0.59284E-03    64   0.602E-01    0.235E-01
DAV:  11    -0.188623935458E+01   -0.20227E-01   -0.36083E-03    48   0.373E-01    0.541E-02
DAV:  12    -0.188552128719E+01    0.71807E-03   -0.18385E-03    56   0.242E-01    0.937E-02
DAV:  13    -0.188933224098E+01   -0.38110E-02   -0.62652E-04    40   0.176E-01    0.147E-02
DAV:  14    -0.189041824420E+01   -0.10860E-02   -0.16811E-04    48   0.672E-02    0.182E-02
DAV:  15    -0.189071145732E+01   -0.29321E-03   -0.39183E-05    48   0.478E-02    0.995E-03
DAV:  16    -0.189098921142E+01   -0.27775E-03   -0.39294E-05    40   0.290E-02    0.541E-03
DAV:  17    -0.189104076611E+01   -0.51555E-04   -0.34087E-06    48   0.132E-02
   1 F= -.18910408E+01 E0= -.18910408E+01  d E =-.309633E-20  mag=     1.9998
