<?xml version="1.0" encoding="ISO-8859-1"?>
<modeling>
 <generator>
  <i name="program" type="string">vasp </i>
  <i name="version" type="string">5.4.4.18Apr17-6-g9f103f2a35  </i>
  <i name="subversion" type="string">(build Dec 28 2021 15:39:15) complex            parallel </i>
  <i name="platform" type="string">LinuxGNU </i>
  <i name="date" type="string">2021 12 31 </i>
  <i name="time" type="string">11:00:42 </i>
 </generator>
 <incar>
  <i type="string" name="SYSTEM"> O atom in a box</i>
  <i type="string" name="PREC">normal</i>
  <i type="int" name="ISPIN">     2</i>
  <i type="int" name="ISMEAR">     0</i>
  <i name="SIGMA">      0.01000000</i>
  <v type="int" name="KPOINT_BSE">    -1     0     0     0</v>
 </incar>
 <structure name="primitive_cell" >
  <crystal>
   <varray name="basis" >
    <v>       7.00000000       0.00000000       0.00000000 </v>
    <v>       0.00000000       7.50000000       0.00000000 </v>
    <v>       0.00000000       0.00000000       8.00000000 </v>
   </varray>
   <i name="volume">    420.00000000 </i>
   <varray name="rec_basis" >
    <v>       0.14285714       0.00000000       0.00000000 </v>
    <v>       0.00000000       0.13333333       0.00000000 </v>
    <v>       0.00000000       0.00000000       0.12500000 </v>
   </varray>
  </crystal>
  <varray name="positions" >
   <v>       0.00000000       0.00000000       0.00000000 </v>
  </varray>
 </structure>
 <varray name="primitive_index" >
  <v type="int" >        1 </v>
 </varray>
 <kpoints>
  <varray name="kpointlist" >
   <v>       0.00000000       0.00000000       0.00000000 </v>
  </varray>
  <varray name="weights" >
   <v>       1.00000000 </v>
  </varray>
 </kpoints>
 <parameters>
  <separator name="general" >
   <i type="string" name="SYSTEM">O atom in a box</i>
   <i type="logical" name="LCOMPAT"> F  </i>
  </separator>
  <separator name="electronic" >
   <i type="string" name="PREC">normal</i>
   <i name="ENMAX">    400.00000000</i>
   <i name="ENAUG">    605.39200000</i>
   <i name="EDIFF">      0.00010000</i>
   <i type="int" name="IALGO">    38</i>
   <i type="int" name="IWAVPR">    10</i>
   <i type="int" name="NBANDS">     8</i>
   <i name="NELECT">      6.00000000</i>
   <i type="int" name="TURBO">     0</i>
   <i type="int" name="IRESTART">     0</i>
   <i type="int" name="NREBOOT">     0</i>
   <i type="int" name="NMIN">     0</i>
   <i name="EREF">      0.00000000</i>
   <separator name="electronic smearing" >
    <i type="int" name="ISMEAR">     0</i>
    <i name="SIGMA">      0.01000000</i>
    <i name="KSPACING">      0.50000000</i>
    <i type="logical" name="KGAMMA"> T  </i>
   </separator>
   <separator name="electronic projectors" >
    <i type="logical" name="LREAL"> F  </i>
    <v name="ROPT">      0.00000000</v>
    <i type="int" name="LMAXPAW">  -100</i>
    <i type="int" name="LMAXMIX">     2</i>
    <i type="logical" name="NLSPLINE"> F  </i>
   </separator>
   <separator name="electronic startup" >
    <i type="int" name="ISTART">     0</i>
    <i type="int" name="ICHARG">     2</i>
    <i type="int" name="INIWAV">     1</i>
   </separator>
   <separator name="electronic spin" >
    <i type="int" name="ISPIN">     2</i>
    <i type="logical" name="LNONCOLLINEAR"> F  </i>
    <v name="MAGMOM">      1.00000000</v>
    <i name="NUPDOWN">     -1.00000000</i>
    <i type="logical" name="LSORBIT"> F  </i>
    <v name="SAXIS">      0.00000000      0.00000000      1.00000000</v>
    <i type="logical" name="LSPIRAL"> F  </i>
    <v name="QSPIRAL">      0.00000000      0.00000000      0.00000000</v>
    <i type="logical" name="LZEROZ"> F  </i>
   </separator>
   <separator name="electronic exchange-correlation" >
    <i type="logical" name="LASPH"> F  </i>
    <i type="logical" name="LMETAGGA"> F  </i>
   </separator>
   <separator name="electronic convergence" >
    <i type="int" name="NELM">    60</i>
    <i type="int" name="NELMDL">    -5</i>
    <i type="int" name="NELMIN">     2</i>
    <i name="ENINI">    400.00000000</i>
    <separator name="electronic convergence detail" >
     <i type="logical" name="LDIAG"> T  </i>
     <i type="logical" name="LSUBROT"> F  </i>
     <i name="WEIMIN">      0.00000000</i>
     <i name="EBREAK">      0.00000313</i>
     <i name="DEPER">      0.30000000</i>
     <i type="int" name="NRMM">     4</i>
     <i name="TIME">      0.40000000</i>
    </separator>
   </separator>
   <separator name="electronic mixer" >
    <i name="AMIX">      0.40000000</i>
    <i name="BMIX">      1.00000000</i>
    <i name="AMIN">      0.10000000</i>
    <i name="AMIX_MAG">      1.60000000</i>
    <i name="BMIX_MAG">      1.00000000</i>
    <separator name="electronic mixer details" >
     <i type="int" name="IMIX">     4</i>
     <i type="logical" name="MIXFIRST"> F  </i>
     <i type="int" name="MAXMIX">   -45</i>
     <i name="WC">    100.00000000</i>
     <i type="int" name="INIMIX">     1</i>
     <i type="int" name="MIXPRE">     1</i>
     <i type="int" name="MREMOVE">     5</i>
    </separator>
   </separator>
   <separator name="electronic dipolcorrection" >
    <i type="logical" name="LDIPOL"> F  </i>
    <i type="logical" name="LMONO"> F  </i>
    <i type="int" name="IDIPOL">     0</i>
    <i name="EPSILON">      1.00000000</i>
    <v name="DIPOL">   -100.00000000   -100.00000000   -100.00000000</v>
    <i name="EFIELD">      0.00000000</i>
   </separator>
  </separator>
  <separator name="grids" >
   <i type="int" name="NGX">    36</i>
   <i type="int" name="NGY">    40</i>
   <i type="int" name="NGZ">    40</i>
   <i type="int" name="NGXF">    72</i>
   <i type="int" name="NGYF">    80</i>
   <i type="int" name="NGZF">    80</i>
   <i type="logical" name="ADDGRID"> F  </i>
  </separator>
  <separator name="ionic" >
   <i type="int" name="NSW">     0</i>
   <i type="int" name="IBRION">    -1</i>
   <i type="int" name="MDALGO">     0</i>
   <i type="int" name="ISIF">     2</i>
   <i name="PSTRESS">      0.00000000</i>
   <i name="EDIFFG">      0.00100000</i>
   <i type="int" name="NFREE">     0</i>
   <i name="POTIM">      0.50000000</i>
   <i name="SMASS">     -3.00000000</i>
   <i name="SCALEE">      1.00000000</i>
  </separator>
  <separator name="ionic md" >
   <i name="TEBEG">      0.00010000</i>
   <i name="TEEND">      0.00010000</i>
   <i type="int" name="NBLOCK">     1</i>
   <i type="int" name="KBLOCK">     1</i>
   <i type="int" name="NPACO">   256</i>
   <i name="APACO">     16.00000000</i>
  </separator>
  <separator name="symmetry" >
   <i type="int" name="ISYM">     2</i>
   <i name="SYMPREC">      0.00001000</i>
  </separator>
  <separator name="dos" >
   <i type="int" name="LORBIT">     0</i>
   <v name="RWIGS">     -1.00000000</v>
   <i type="int" name="NEDOS">   301</i>
   <i name="EMIN">     10.00000000</i>
   <i name="EMAX">    -10.00000000</i>
   <i name="EFERMI">      0.00000000</i>
  </separator>
  <separator name="writing" >
   <i type="int" name="NWRITE">     2</i>
   <i type="logical" name="LWAVE"> T  </i>
   <i type="logical" name="LDOWNSAMPLE"> F  </i>
   <i type="logical" name="LCHARG"> T  </i>
   <i type="logical" name="LPARD"> F  </i>
   <i type="logical" name="LVTOT"> F  </i>
   <i type="logical" name="LVHAR"> F  </i>
   <i type="logical" name="LELF"> F  </i>
   <i type="logical" name="LOPTICS"> F  </i>
   <v name="STM">      0.00000000      0.00000000      0.00000000      0.00000000      0.00000000      0.00000000      0.00000000</v>
  </separator>
  <separator name="performance" >
   <i type="int" name="NPAR">     4</i>
   <i type="int" name="NSIM">     4</i>
   <i type="int" name="NBLK">    -1</i>
   <i type="logical" name="LPLANE"> T  </i>
   <i type="logical" name="LSCALAPACK"> T  </i>
   <i type="logical" name="LSCAAWARE"> F  </i>
   <i type="logical" name="LSCALU"> F  </i>
   <i type="logical" name="LASYNC"> F  </i>
   <i type="logical" name="LORBITALREAL"> F  </i>
  </separator>
  <separator name="miscellaneous" >
   <i type="int" name="IDIOT">     3</i>
   <i type="int" name="ISPECIAL">     0</i>
   <i type="logical" name="LMUSIC"> F  </i>
   <v name="POMASS">     16.00000000</v>
   <v name="DARWINR">      0.00000000</v>
   <v name="DARWINV">      1.00000000</v>
   <i type="logical" name="LCORR"> T  </i>
  </separator>
  <i type="logical" name="GGA_COMPAT"> T  </i>
  <i type="logical" name="LBERRY"> F  </i>
  <i type="int" name="ICORELEVEL">     0</i>
  <i type="logical" name="LDAU"> F  </i>
  <i type="int" name="I_CONSTRAINED_M">     0</i>
  <separator name="electronic exchange-correlation" >
   <i type="string" name="GGA">--</i>
   <i type="int" name="VOSKOWN">     0</i>
   <i type="logical" name="LHFCALC"> F  </i>
   <i type="string" name="PRECFOCK"></i>
   <i type="logical" name="LSYMGRAD"> F  </i>
   <i type="logical" name="LHFONE"> F  </i>
   <i type="logical" name="LRHFCALC"> F  </i>
   <i type="logical" name="LTHOMAS"> F  </i>
   <i type="logical" name="LMODELHF"> F  </i>
   <i name="ENCUT4O">     -1.00000000</i>
   <i type="int" name="EXXOEP">     0</i>
   <i type="int" name="FOURORBIT">     0</i>
   <i name="AEXX">      0.00000000</i>
   <i name="HFALPHA">      0.00000000</i>
   <i name="MCALPHA">      0.00000000</i>
   <i name="ALDAX">      1.00000000</i>
   <i name="AGGAX">      1.00000000</i>
   <i name="ALDAC">      1.00000000</i>
   <i name="AGGAC">      1.00000000</i>
   <i type="int" name="NKREDX">     1</i>
   <i type="int" name="NKREDY">     1</i>
   <i type="int" name="NKREDZ">     1</i>
   <i type="logical" name="SHIFTRED"> F  </i>
   <i type="logical" name="ODDONLY"> F  </i>
   <i type="logical" name="EVENONLY"> F  </i>
   <i type="int" name="LMAXFOCK">     0</i>
   <i type="int" name="NMAXFOCKAE">     0</i>
   <i type="logical" name="LFOCKAEDFT"> F  </i>
   <i name="HFSCREEN">      0.00000000</i>
   <i name="HFSCREENC">      0.00000000</i>
   <i type="int" name="NBANDSGWLOW">     0</i>
  </separator>
  <separator name="vdW DFT" >
   <i type="logical" name="LUSE_VDW"> F  </i>
   <i name="Zab_VDW">     -0.84910000</i>
   <i name="PARAM1">      0.12340000</i>
   <i name="PARAM2">      1.00000000</i>
   <i name="PARAM3">      0.00000000</i>
  </separator>
  <separator name="model GW" >
   <i type="int" name="MODEL_GW">     0</i>
   <i name="MODEL_EPS0">    252.00000000</i>
   <i name="MODEL_ALPHA">      1.00000000</i>
  </separator>
  <separator name="linear response parameters" >
   <i type="logical" name="LEPSILON"> F  </i>
   <i type="logical" name="LRPA"> F  </i>
   <i type="logical" name="LNABLA"> F  </i>
   <i type="logical" name="LVEL"> F  </i>
   <i type="int" name="KINTER">     0</i>
   <i name="CSHIFT">      0.10000000</i>
   <i name="OMEGAMAX">     -1.00000000</i>
   <i name="DEG_THRESHOLD">      0.00200000</i>
   <i name="RTIME">     -0.10000000</i>
   <i name="WPLASMAI">      0.00000000</i>
   <v name="DFIELD">      0.00000000      0.00000000      0.00000000</v>
   <v name="WPLASMA">      0.00000000      0.00000000      0.00000000      0.00000000      0.00000000      0.00000000      0.00000000      0.00000000      0.00000000</v>
  </separator>
  <separator name="orbital magnetization" >
   <i type="logical" name="NUCIND"> F  </i>
   <v name="MAGPOS">      0.00000000      0.00000000      0.00000000</v>
   <i type="logical" name="LNICSALL"> T  </i>
   <i type="logical" name="ORBITALMAG"> F  </i>
   <i type="logical" name="LMAGBLOCH"> F  </i>
   <i type="logical" name="LCHIMAG"> F  </i>
   <i type="logical" name="LGAUGE"> T  </i>
   <i type="int" name="MAGATOM">     0</i>
   <v name="MAGDIPOL">      0.00000000      0.00000000      0.00000000</v>
   <v name="AVECCONST">      0.00000000      0.00000000      0.00000000</v>
  </separator>
  <separator name="response functions" >
   <i type="logical" name="LADDER"> F  </i>
   <i type="logical" name="LRPAFORCE"> F  </i>
   <i type="logical" name="LFXC"> F  </i>
   <i type="logical" name="LHARTREE"> T  </i>
   <i type="int" name="IBSE">     0</i>
   <v type="int" name="KPOINT">    -1     0     0     0</v>
   <i type="logical" name="LTCTE"> F  </i>
   <i type="logical" name="LTETE"> F  </i>
   <i type="logical" name="LTRIPLET"> F  </i>
   <i type="logical" name="LFXCEPS"> F  </i>
   <i type="logical" name="LFXHEG"> F  </i>
   <i type="int" name="NATURALO">     2</i>
   <i type="logical" name="L2ORDER"> F  </i>
   <i type="logical" name="LMP2LT"> F  </i>
   <i type="logical" name="LUSEW"> F  </i>
   <i name="ENCUTGW">     -2.00000000</i>
   <i name="ENCUTGWSOFT">     -2.00000000</i>
   <i name="ENCUTLF">     -1.00000000</i>
   <i type="int" name="LMAXMP2">    -1</i>
   <i name="SCISSOR">      0.00000000</i>
   <i type="int" name="NOMEGA">     0</i>
   <i type="int" name="NOMEGAR">     0</i>
   <i type="int" name="NBANDSGW">    -1</i>
   <i type="int" name="NBANDSO">    -1</i>
   <i type="int" name="NBANDSV">    -1</i>
   <i type="int" name="NELM">     1</i>
   <i type="int" name="NELMHF">     1</i>
   <i type="int" name="DIM">     3</i>
   <i type="int" name="ANTIRES">     0</i>
   <i name="OMEGAMAX">    -30.00000000</i>
   <i name="OMEGAMIN">    -30.00000000</i>
   <i name="OMEGATL">   -200.00000000</i>
   <i type="int" name="OMEGAGRID">   140</i>
   <i name="CSHIFT">     -0.10000000</i>
   <i type="logical" name="SELFENERGY"> F  </i>
   <i type="logical" name="LSPECTRAL"> F  </i>
   <i type="logical" name="LSPECTRALGW"> F  </i>
   <i type="logical" name="LSINGLES"> F  </i>
   <i type="logical" name="LFERMIGW"> F  </i>
   <i type="logical" name="ODDONLYGW"> F  </i>
   <i type="logical" name="EVENONLYGW"> F  </i>
   <i type="int" name="NKREDLFX">     1</i>
   <i type="int" name="NKREDLFY">     1</i>
   <i type="int" name="NKREDLFZ">     1</i>
   <i type="int" name="MAXMEM">  2800</i>
   <i type="int" name="TELESCOPE">     0</i>
   <i type="int" name="TAUPAR">     1</i>
   <i type="int" name="OMEGAPAR">    -1</i>
   <i name="LAMBDA">      1.00000000</i>
  </separator>
  <separator name="External order field" >
   <i name="OFIELD_KAPPA">      0.00000000</i>
   <v name="OFIELD_K">      0.00000000      0.00000000      0.00000000</v>
   <i name="OFIELD_Q6_NEAR">      0.00000000</i>
   <i name="OFIELD_Q6_FAR">      0.00000000</i>
   <i name="OFIELD_A">      0.00000000</i>
  </separator>
 </parameters>
 <atominfo>
  <atoms>       1 </atoms>
  <types>       1 </types>
  <array name="atoms" >
   <dimension dim="1">ion</dimension>
   <field type="string">element</field>
   <field type="int">atomtype</field>
   <set>
    <rc><c>O </c><c>   1</c></rc>
   </set>
  </array>
  <array name="atomtypes" >
   <dimension dim="1">type</dimension>
   <field type="int">atomspertype</field>
   <field type="string">element</field>
   <field>mass</field>
   <field>valence</field>
   <field type="string">pseudopotential</field>
   <set>
    <rc><c>   1</c><c>O </c><c>     16.00000000</c><c>      6.00000000</c><c> PAW_RPBE O 08Apr2002                   </c></rc>
   </set>
  </array>
 </atominfo>
 <structure name="initialpos" >
  <crystal>
   <varray name="basis" >
    <v>       7.00000000       0.00000000       0.00000000 </v>
    <v>       0.00000000       7.50000000       0.00000000 </v>
    <v>       0.00000000       0.00000000       8.00000000 </v>
   </varray>
   <i name="volume">    420.00000000 </i>
   <varray name="rec_basis" >
    <v>       0.14285714       0.00000000       0.00000000 </v>
    <v>       0.00000000       0.13333333       0.00000000 </v>
    <v>       0.00000000       0.00000000       0.12500000 </v>
   </varray>
  </crystal>
  <varray name="positions" >
   <v>       0.00000000       0.00000000       0.00000000 </v>
  </varray>
 </structure>
 <calculation>
  <scstep>
   <time name="dav">    0.03    0.03</time>
   <time name="total">    0.17    0.17</time>
   <energy>
    <i name="alphaZ">      0.33079207 </i>
    <i name="ewald">    -97.75476090 </i>
    <i name="hartreedc">   -276.26988979 </i>
    <i name="XCdc">     26.26291933 </i>
    <i name="pawpsdc">    245.86419871 </i>
    <i name="pawaedc">   -247.70903455 </i>
    <i name="eentropy">     -0.00000000 </i>
    <i name="bandstr">    -46.11716018 </i>
    <i name="atom">    432.26319604 </i>
    <i name="e_fr_energy">     36.87026073 </i>
    <i name="e_wo_entrp">     36.87026073 </i>
    <i name="e_0_energy">     36.87026073 </i>
   </energy>
  </scstep>
  <scstep>
   <time name="dav">    0.06    0.06</time>
   <time name="total">    0.06    0.06</time>
   <energy>
    <i name="e_fr_energy">      2.50195546 </i>
    <i name="e_wo_entrp">      2.50195546 </i>
    <i name="e_0_energy">      2.50195546 </i>
   </energy>
  </scstep>
  <scstep>
   <time name="dav">    0.04    0.04</time>
   <time name="total">    0.04    0.04</time>
   <energy>
    <i name="e_fr_energy">     -1.04912396 </i>
    <i name="e_wo_entrp">     -1.04373172 </i>
    <i name="e_0_energy">     -1.04642784 </i>
   </energy>
  </scstep>
  <scstep>
   <time name="dav">    0.03    0.03</time>
   <time name="total">    0.03    0.03</time>
   <energy>
    <i name="e_fr_energy">     -1.11286497 </i>
    <i name="e_wo_entrp">     -1.10516442 </i>
    <i name="e_0_energy">     -1.10901469 </i>
   </energy>
  </scstep>
  <scstep>
   <time name="dav">    0.05    0.05</time>
   <time name="total">    0.07    0.07</time>
   <energy>
    <i name="e_fr_energy">     -1.11361177 </i>
    <i name="e_wo_entrp">     -1.10590383 </i>
    <i name="e_0_energy">     -1.10975780 </i>
   </energy>
  </scstep>
  <scstep>
   <time name="dav">    0.04    0.04</time>
   <time name="total">    0.18    0.18</time>
   <energy>
    <i name="e_fr_energy">      0.22628072 </i>
    <i name="e_wo_entrp">      0.22638028 </i>
    <i name="e_0_energy">      0.22633050 </i>
   </energy>
  </scstep>
  <scstep>
   <time name="dav">    0.03    0.03</time>
   <time name="total">    0.17    0.17</time>
   <energy>
    <i name="e_fr_energy">     -1.06615553 </i>
    <i name="e_wo_entrp">     -1.06615553 </i>
    <i name="e_0_energy">     -1.06615553 </i>
   </energy>
  </scstep>
  <scstep>
   <time name="dav">    0.04    0.04</time>
   <time name="total">    0.19    0.19</time>
   <energy>
    <i name="e_fr_energy">     -1.63475241 </i>
    <i name="e_wo_entrp">     -1.63475241 </i>
    <i name="e_0_energy">     -1.63475241 </i>
   </energy>
  </scstep>
  <scstep>
   <time name="dav">    0.03    0.03</time>
   <time name="total">    0.17    0.17</time>
   <energy>
    <i name="e_fr_energy">     -1.82255017 </i>
    <i name="e_wo_entrp">     -1.82255017 </i>
    <i name="e_0_energy">     -1.82255017 </i>
   </energy>
  </scstep>
  <scstep>
   <time name="dav">    0.06    0.06</time>
   <time name="total">    0.20    0.20</time>
   <energy>
    <i name="e_fr_energy">     -1.86601254 </i>
    <i name="e_wo_entrp">     -1.86601254 </i>
    <i name="e_0_energy">     -1.86601254 </i>
   </energy>
  </scstep>
  <scstep>
   <time name="dav">    0.05    0.05</time>
   <time name="total">    0.19    0.19</time>
   <energy>
    <i name="e_fr_energy">     -1.88623935 </i>
    <i name="e_wo_entrp">     -1.88623935 </i>
    <i name="e_0_energy">     -1.88623935 </i>
   </energy>
  </scstep>
  <scstep>
   <time name="dav">    0.05    0.05</time>
   <time name="total">    0.19    0.19</time>
   <energy>
    <i name="e_fr_energy">     -1.88552129 </i>
    <i name="e_wo_entrp">     -1.88552129 </i>
    <i name="e_0_energy">     -1.88552129 </i>
   </energy>
  </scstep>
  <scstep>
   <time name="dav">    0.04    0.04</time>
   <time name="total">    0.18    0.18</time>
   <energy>
    <i name="e_fr_energy">     -1.88933224 </i>
    <i name="e_wo_entrp">     -1.88933224 </i>
    <i name="e_0_energy">     -1.88933224 </i>
   </energy>
  </scstep>
  <scstep>
   <time name="dav">    0.04    0.04</time>
   <time name="total">    0.19    0.19</time>
   <energy>
    <i name="e_fr_energy">     -1.89041824 </i>
    <i name="e_wo_entrp">     -1.89041824 </i>
    <i name="e_0_energy">     -1.89041824 </i>
   </energy>
  </scstep>
  <scstep>
   <time name="dav">    0.04    0.04</time>
   <time name="total">    0.19    0.19</time>
   <energy>
    <i name="e_fr_energy">     -1.89071146 </i>
    <i name="e_wo_entrp">     -1.89071146 </i>
    <i name="e_0_energy">     -1.89071146 </i>
   </energy>
  </scstep>
  <scstep>
   <time name="dav">    0.04    0.04</time>
   <time name="total">    0.18    0.18</time>
   <energy>
    <i name="e_fr_energy">     -1.89098921 </i>
    <i name="e_wo_entrp">     -1.89098921 </i>
    <i name="e_0_energy">     -1.89098921 </i>
   </energy>
  </scstep>
  <scstep>
   <time name="dav">    0.04    0.04</time>
   <time name="total">    0.17    0.17</time>
   <energy>
    <i name="alphaZ">      0.33079207 </i>
    <i name="ewald">    -97.75476090 </i>
    <i name="hartreedc">   -277.91086797 </i>
    <i name="XCdc">     26.99954515 </i>
    <i name="pawpsdc">    251.24923326 </i>
    <i name="pawaedc">   -253.07671996 </i>
    <i name="eentropy">     -0.00000000 </i>
    <i name="bandstr">    -83.99145846 </i>
    <i name="atom">    432.26319604 </i>
    <i name="e_fr_energy">     -1.89104077 </i>
    <i name="e_wo_entrp">     -1.89104077 </i>
    <i name="e_0_energy">     -1.89104077 </i>
   </energy>
  </scstep>
  <structure>
   <crystal>
    <varray name="basis" >
     <v>       7.00000000       0.00000000       0.00000000 </v>
     <v>       0.00000000       7.50000000       0.00000000 </v>
     <v>       0.00000000       0.00000000       8.00000000 </v>
    </varray>
    <i name="volume">    420.00000000 </i>
    <varray name="rec_basis" >
     <v>       0.14285714       0.00000000       0.00000000 </v>
     <v>       0.00000000       0.13333333       0.00000000 </v>
     <v>       0.00000000       0.00000000       0.12500000 </v>
    </varray>
   </crystal>
   <varray name="positions" >
    <v>       0.00000000       0.00000000       0.00000000 </v>
   </varray>
  </structure>
  <varray name="forces" >
   <v>      -0.00000000       0.00000000       0.00000000 </v>
  </varray>
  <varray name="stress" >
   <v>      -2.77852125      -0.00000000       0.00000000 </v>
   <v>      -0.00000000      -2.83884093       0.00000000 </v>
   <v>       0.00000000       0.00000000      -3.76134456 </v>
  </varray>
  <energy>
   <i name="e_fr_energy">     -1.89104077 </i>
   <i name="e_wo_entrp">     -1.89104077 </i>
   <i name="e_0_energy">     -0.00000000 </i>
  </energy>
  <time name="totalsc">    3.43    3.43</time>
  <eigenvalues>
   <array>
    <dimension dim="1">band</dimension>
    <dimension dim="2">kpoint</dimension>
    <dimension dim="3">spin</dimension>
    <field>eigene</field>
    <field>occ</field>
    <set>
     <set comment="spin 1">
      <set comment="kpoint 1">
       <r>  -25.0682    1.0000 </r>
       <r>  -10.7441    1.0000 </r>
       <r>  -10.7433    1.0000 </r>
       <r>   -8.6436    1.0000 </r>
       <r>   -0.5792    0.0000 </r>
       <r>    1.8046    0.0000 </r>
       <r>    1.9955    0.0000 </r>
       <r>    2.0142    0.0000 </r>
      </set>
     </set>
     <set comment="spin 2">
      <set comment="kpoint 1">
       <r>  -21.4031    1.0000 </r>
       <r>   -7.3891    1.0000 </r>
       <r>   -6.2821    0.0000 </r>
       <r>   -6.2806    0.0000 </r>
       <r>   -0.3297    0.0000 </r>
       <r>    1.9176    0.0000 </r>
       <r>    2.1797    0.0000 </r>
       <r>    2.4480    0.0000 </r>
      </set>
     </set>
    </set>
   </array>
  </eigenvalues>
  <separator name="orbital magnetization" >
   <v name="MAGDIPOLOUT">      0.00000000      0.00000000      0.00000000</v>
  </separator>
  <dos>
   <i name="efermi">     -7.32481738 </i>
   <total>
    <array>
     <dimension dim="1">gridpoints</dimension>
     <dimension dim="2">spin</dimension>
     <field>energy</field>
     <field>total</field>
     <field>integrated</field>
     <set>
      <set comment="spin 1">
       <r>   -26.4440     0.0000     0.0000 </r>
       <r>   -26.3431     0.0000     0.0000 </r>
       <r>   -26.2422     0.0000     0.0000 </r>
       <r>   -26.1413     0.0000     0.0000 </r>
       <r>   -26.0404     0.0000     0.0000 </r>
       <r>   -25.9395     0.0000     0.0000 </r>
       <r>   -25.8387     0.0000     0.0000 </r>
       <r>   -25.7378     0.0000     0.0000 </r>
       <r>   -25.6369     0.0000     0.0000 </r>
       <r>   -25.5360     0.0000     0.0000 </r>
       <r>   -25.4351     0.0000     0.0000 </r>
       <r>   -25.3342     0.0000     0.0000 </r>
       <r>   -25.2333     0.0000     0.0000 </r>
       <r>   -25.1324     0.0000     0.0000 </r>
       <r>   -25.0315     9.9115     1.0000 </r>
       <r>   -24.9306     0.0000     1.0000 </r>
       <r>   -24.8297     0.0000     1.0000 </r>
       <r>   -24.7288     0.0000     1.0000 </r>
       <r>   -24.6279     0.0000     1.0000 </r>
       <r>   -24.5270     0.0000     1.0000 </r>
       <r>   -24.4262     0.0000     1.0000 </r>
       <r>   -24.3253     0.0000     1.0000 </r>
       <r>   -24.2244     0.0000     1.0000 </r>
       <r>   -24.1235     0.0000     1.0000 </r>
       <r>   -24.0226     0.0000     1.0000 </r>
       <r>   -23.9217     0.0000     1.0000 </r>
       <r>   -23.8208     0.0000     1.0000 </r>
       <r>   -23.7199     0.0000     1.0000 </r>
       <r>   -23.6190     0.0000     1.0000 </r>
       <r>   -23.5181     0.0000     1.0000 </r>
       <r>   -23.4172     0.0000     1.0000 </r>
       <r>   -23.3163     0.0000     1.0000 </r>
       <r>   -23.2154     0.0000     1.0000 </r>
       <r>   -23.1145     0.0000     1.0000 </r>
       <r>   -23.0137     0.0000     1.0000 </r>
       <r>   -22.9128     0.0000     1.0000 </r>
       <r>   -22.8119     0.0000     1.0000 </r>
       <r>   -22.7110     0.0000     1.0000 </r>
       <r>   -22.6101     0.0000     1.0000 </r>
       <r>   -22.5092     0.0000     1.0000 </r>
       <r>   -22.4083     0.0000     1.0000 </r>
       <r>   -22.3074     0.0000     1.0000 </r>
       <r>   -22.2065     0.0000     1.0000 </r>
       <r>   -22.1056     0.0000     1.0000 </r>
       <r>   -22.0047     0.0000     1.0000 </r>
       <r>   -21.9038     0.0000     1.0000 </r>
       <r>   -21.8029     0.0000     1.0000 </r>
       <r>   -21.7020     0.0000     1.0000 </r>
       <r>   -21.6012     0.0000     1.0000 </r>
       <r>   -21.5003     0.0000     1.0000 </r>
       <r>   -21.3994     0.0000     1.0000 </r>
       <r>   -21.2985     0.0000     1.0000 </r>
       <r>   -21.1976     0.0000     1.0000 </r>
       <r>   -21.0967     0.0000     1.0000 </r>
       <r>   -20.9958     0.0000     1.0000 </r>
       <r>   -20.8949     0.0000     1.0000 </r>
       <r>   -20.7940     0.0000     1.0000 </r>
       <r>   -20.6931     0.0000     1.0000 </r>
       <r>   -20.5922     0.0000     1.0000 </r>
       <r>   -20.4913     0.0000     1.0000 </r>
       <r>   -20.3904     0.0000     1.0000 </r>
       <r>   -20.2895     0.0000     1.0000 </r>
       <r>   -20.1887     0.0000     1.0000 </r>
       <r>   -20.0878     0.0000     1.0000 </r>
       <r>   -19.9869     0.0000     1.0000 </r>
       <r>   -19.8860     0.0000     1.0000 </r>
       <r>   -19.7851     0.0000     1.0000 </r>
       <r>   -19.6842     0.0000     1.0000 </r>
       <r>   -19.5833     0.0000     1.0000 </r>
       <r>   -19.4824     0.0000     1.0000 </r>
       <r>   -19.3815     0.0000     1.0000 </r>
       <r>   -19.2806     0.0000     1.0000 </r>
       <r>   -19.1797     0.0000     1.0000 </r>
       <r>   -19.0788     0.0000     1.0000 </r>
       <r>   -18.9779     0.0000     1.0000 </r>
       <r>   -18.8770     0.0000     1.0000 </r>
       <r>   -18.7762     0.0000     1.0000 </r>
       <r>   -18.6753     0.0000     1.0000 </r>
       <r>   -18.5744     0.0000     1.0000 </r>
       <r>   -18.4735     0.0000     1.0000 </r>
       <r>   -18.3726     0.0000     1.0000 </r>
       <r>   -18.2717     0.0000     1.0000 </r>
       <r>   -18.1708     0.0000     1.0000 </r>
       <r>   -18.0699     0.0000     1.0000 </r>
       <r>   -17.9690     0.0000     1.0000 </r>
       <r>   -17.8681     0.0000     1.0000 </r>
       <r>   -17.7672     0.0000     1.0000 </r>
       <r>   -17.6663     0.0000     1.0000 </r>
       <r>   -17.5654     0.0000     1.0000 </r>
       <r>   -17.4645     0.0000     1.0000 </r>
       <r>   -17.3637     0.0000     1.0000 </r>
       <r>   -17.2628     0.0000     1.0000 </r>
       <r>   -17.1619     0.0000     1.0000 </r>
       <r>   -17.0610     0.0000     1.0000 </r>
       <r>   -16.9601     0.0000     1.0000 </r>
       <r>   -16.8592     0.0000     1.0000 </r>
       <r>   -16.7583     0.0000     1.0000 </r>
       <r>   -16.6574     0.0000     1.0000 </r>
       <r>   -16.5565     0.0000     1.0000 </r>
       <r>   -16.4556     0.0000     1.0000 </r>
       <r>   -16.3547     0.0000     1.0000 </r>
       <r>   -16.2538     0.0000     1.0000 </r>
       <r>   -16.1529     0.0000     1.0000 </r>
       <r>   -16.0520     0.0000     1.0000 </r>
       <r>   -15.9512     0.0000     1.0000 </r>
       <r>   -15.8503     0.0000     1.0000 </r>
       <r>   -15.7494     0.0000     1.0000 </r>
       <r>   -15.6485     0.0000     1.0000 </r>
       <r>   -15.5476     0.0000     1.0000 </r>
       <r>   -15.4467     0.0000     1.0000 </r>
       <r>   -15.3458     0.0000     1.0000 </r>
       <r>   -15.2449     0.0000     1.0000 </r>
       <r>   -15.1440     0.0000     1.0000 </r>
       <r>   -15.0431     0.0000     1.0000 </r>
       <r>   -14.9422     0.0000     1.0000 </r>
       <r>   -14.8413     0.0000     1.0000 </r>
       <r>   -14.7404     0.0000     1.0000 </r>
       <r>   -14.6395     0.0000     1.0000 </r>
       <r>   -14.5387     0.0000     1.0000 </r>
       <r>   -14.4378     0.0000     1.0000 </r>
       <r>   -14.3369     0.0000     1.0000 </r>
       <r>   -14.2360     0.0000     1.0000 </r>
       <r>   -14.1351     0.0000     1.0000 </r>
       <r>   -14.0342     0.0000     1.0000 </r>
       <r>   -13.9333     0.0000     1.0000 </r>
       <r>   -13.8324     0.0000     1.0000 </r>
       <r>   -13.7315     0.0000     1.0000 </r>
       <r>   -13.6306     0.0000     1.0000 </r>
       <r>   -13.5297     0.0000     1.0000 </r>
       <r>   -13.4288     0.0000     1.0000 </r>
       <r>   -13.3279     0.0000     1.0000 </r>
       <r>   -13.2270     0.0000     1.0000 </r>
       <r>   -13.1262     0.0000     1.0000 </r>
       <r>   -13.0253     0.0000     1.0000 </r>
       <r>   -12.9244     0.0000     1.0000 </r>
       <r>   -12.8235     0.0000     1.0000 </r>
       <r>   -12.7226     0.0000     1.0000 </r>
       <r>   -12.6217     0.0000     1.0000 </r>
       <r>   -12.5208     0.0000     1.0000 </r>
       <r>   -12.4199     0.0000     1.0000 </r>
       <r>   -12.3190     0.0000     1.0000 </r>
       <r>   -12.2181     0.0000     1.0000 </r>
       <r>   -12.1172     0.0000     1.0000 </r>
       <r>   -12.0163     0.0000     1.0000 </r>
       <r>   -11.9154     0.0000     1.0000 </r>
       <r>   -11.8145     0.0000     1.0000 </r>
       <r>   -11.7137     0.0000     1.0000 </r>
       <r>   -11.6128     0.0000     1.0000 </r>
       <r>   -11.5119     0.0000     1.0000 </r>
       <r>   -11.4110     0.0000     1.0000 </r>
       <r>   -11.3101     0.0000     1.0000 </r>
       <r>   -11.2092     0.0000     1.0000 </r>
       <r>   -11.1083     0.0000     1.0000 </r>
       <r>   -11.0074     0.0000     1.0000 </r>
       <r>   -10.9065     0.0000     1.0000 </r>
       <r>   -10.8056     0.0000     1.0000 </r>
       <r>   -10.7047    19.8230     3.0000 </r>
       <r>   -10.6038     0.0000     3.0000 </r>
       <r>   -10.5029     0.0000     3.0000 </r>
       <r>   -10.4020     0.0000     3.0000 </r>
       <r>   -10.3012     0.0000     3.0000 </r>
       <r>   -10.2003     0.0000     3.0000 </r>
       <r>   -10.0994     0.0000     3.0000 </r>
       <r>    -9.9985     0.0000     3.0000 </r>
       <r>    -9.8976     0.0000     3.0000 </r>
       <r>    -9.7967     0.0000     3.0000 </r>
       <r>    -9.6958     0.0000     3.0000 </r>
       <r>    -9.5949     0.0000     3.0000 </r>
       <r>    -9.4940     0.0000     3.0000 </r>
       <r>    -9.3931     0.0000     3.0000 </r>
       <r>    -9.2922     0.0000     3.0000 </r>
       <r>    -9.1913     0.0000     3.0000 </r>
       <r>    -9.0904     0.0000     3.0000 </r>
       <r>    -8.9895     0.0000     3.0000 </r>
       <r>    -8.8887     0.0000     3.0000 </r>
       <r>    -8.7878     0.0000     3.0000 </r>
       <r>    -8.6869     0.0000     3.0000 </r>
       <r>    -8.5860     9.9115     4.0000 </r>
       <r>    -8.4851     0.0000     4.0000 </r>
       <r>    -8.3842     0.0000     4.0000 </r>
       <r>    -8.2833     0.0000     4.0000 </r>
       <r>    -8.1824     0.0000     4.0000 </r>
       <r>    -8.0815     0.0000     4.0000 </r>
       <r>    -7.9806     0.0000     4.0000 </r>
       <r>    -7.8797     0.0000     4.0000 </r>
       <r>    -7.7788     0.0000     4.0000 </r>
       <r>    -7.6779     0.0000     4.0000 </r>
       <r>    -7.5770     0.0000     4.0000 </r>
       <r>    -7.4762     0.0000     4.0000 </r>
       <r>    -7.3753     0.0000     4.0000 </r>
       <r>    -7.2744     0.0000     4.0000 </r>
       <r>    -7.1735     0.0000     4.0000 </r>
       <r>    -7.0726     0.0000     4.0000 </r>
       <r>    -6.9717     0.0000     4.0000 </r>
       <r>    -6.8708     0.0000     4.0000 </r>
       <r>    -6.7699     0.0000     4.0000 </r>
       <r>    -6.6690     0.0000     4.0000 </r>
       <r>    -6.5681     0.0000     4.0000 </r>
       <r>    -6.4672     0.0000     4.0000 </r>
       <r>    -6.3663     0.0000     4.0000 </r>
       <r>    -6.2654     0.0000     4.0000 </r>
       <r>    -6.1645     0.0000     4.0000 </r>
       <r>    -6.0637     0.0000     4.0000 </r>
       <r>    -5.9628     0.0000     4.0000 </r>
       <r>    -5.8619     0.0000     4.0000 </r>
       <r>    -5.7610     0.0000     4.0000 </r>
       <r>    -5.6601     0.0000     4.0000 </r>
       <r>    -5.5592     0.0000     4.0000 </r>
       <r>    -5.4583     0.0000     4.0000 </r>
       <r>    -5.3574     0.0000     4.0000 </r>
       <r>    -5.2565     0.0000     4.0000 </r>
       <r>    -5.1556     0.0000     4.0000 </r>
       <r>    -5.0547     0.0000     4.0000 </r>
       <r>    -4.9538     0.0000     4.0000 </r>
       <r>    -4.8529     0.0000     4.0000 </r>
       <r>    -4.7521     0.0000     4.0000 </r>
       <r>    -4.6512     0.0000     4.0000 </r>
       <r>    -4.5503     0.0000     4.0000 </r>
       <r>    -4.4494     0.0000     4.0000 </r>
       <r>    -4.3485     0.0000     4.0000 </r>
       <r>    -4.2476     0.0000     4.0000 </r>
       <r>    -4.1467     0.0000     4.0000 </r>
       <r>    -4.0458     0.0000     4.0000 </r>
       <r>    -3.9449     0.0000     4.0000 </r>
       <r>    -3.8440     0.0000     4.0000 </r>
       <r>    -3.7431     0.0000     4.0000 </r>
       <r>    -3.6422     0.0000     4.0000 </r>
       <r>    -3.5413     0.0000     4.0000 </r>
       <r>    -3.4404     0.0000     4.0000 </r>
       <r>    -3.3396     0.0000     4.0000 </r>
       <r>    -3.2387     0.0000     4.0000 </r>
       <r>    -3.1378     0.0000     4.0000 </r>
       <r>    -3.0369     0.0000     4.0000 </r>
       <r>    -2.9360     0.0000     4.0000 </r>
       <r>    -2.8351     0.0000     4.0000 </r>
       <r>    -2.7342     0.0000     4.0000 </r>
       <r>    -2.6333     0.0000     4.0000 </r>
       <r>    -2.5324     0.0000     4.0000 </r>
       <r>    -2.4315     0.0000     4.0000 </r>
       <r>    -2.3306     0.0000     4.0000 </r>
       <r>    -2.2297     0.0000     4.0000 </r>
       <r>    -2.1288     0.0000     4.0000 </r>
       <r>    -2.0279     0.0000     4.0000 </r>
       <r>    -1.9271     0.0000     4.0000 </r>
       <r>    -1.8262     0.0000     4.0000 </r>
       <r>    -1.7253     0.0000     4.0000 </r>
       <r>    -1.6244     0.0000     4.0000 </r>
       <r>    -1.5235     0.0000     4.0000 </r>
       <r>    -1.4226     0.0000     4.0000 </r>
       <r>    -1.3217     0.0000     4.0000 </r>
       <r>    -1.2208     0.0000     4.0000 </r>
       <r>    -1.1199     0.0000     4.0000 </r>
       <r>    -1.0190     0.0000     4.0000 </r>
       <r>    -0.9181     0.0000     4.0000 </r>
       <r>    -0.8172     0.0000     4.0000 </r>
       <r>    -0.7163     0.0000     4.0000 </r>
       <r>    -0.6154     0.0000     4.0000 </r>
       <r>    -0.5146     9.9115     5.0000 </r>
       <r>    -0.4137     0.0000     5.0000 </r>
       <r>    -0.3128     0.0000     5.0000 </r>
       <r>    -0.2119     0.0000     5.0000 </r>
       <r>    -0.1110     0.0000     5.0000 </r>
       <r>    -0.0101     0.0000     5.0000 </r>
       <r>     0.0908     0.0000     5.0000 </r>
       <r>     0.1917     0.0000     5.0000 </r>
       <r>     0.2926     0.0000     5.0000 </r>
       <r>     0.3935     0.0000     5.0000 </r>
       <r>     0.4944     0.0000     5.0000 </r>
       <r>     0.5953     0.0000     5.0000 </r>
       <r>     0.6962     0.0000     5.0000 </r>
       <r>     0.7971     0.0000     5.0000 </r>
       <r>     0.8979     0.0000     5.0000 </r>
       <r>     0.9988     0.0000     5.0000 </r>
       <r>     1.0997     0.0000     5.0000 </r>
       <r>     1.2006     0.0000     5.0000 </r>
       <r>     1.3015     0.0000     5.0000 </r>
       <r>     1.4024     0.0000     5.0000 </r>
       <r>     1.5033     0.0000     5.0000 </r>
       <r>     1.6042     0.0000     5.0000 </r>
       <r>     1.7051     0.0000     5.0000 </r>
       <r>     1.8060     5.7301     5.5781 </r>
       <r>     1.9069     0.0000     6.0000 </r>
       <r>     2.0078    11.3010     7.1402 </r>
       <r>     2.1087     0.0000     8.0000 </r>
       <r>     2.2096     0.0000     8.0000 </r>
       <r>     2.3104     0.0000     8.0000 </r>
       <r>     2.4113     0.0000     8.0000 </r>
       <r>     2.5122     0.0000     8.0000 </r>
       <r>     2.6131     0.0000     8.0000 </r>
       <r>     2.7140     0.0000     8.0000 </r>
       <r>     2.8149     0.0000     8.0000 </r>
       <r>     2.9158     0.0000     8.0000 </r>
       <r>     3.0167     0.0000     8.0000 </r>
       <r>     3.1176     0.0000     8.0000 </r>
       <r>     3.2185     0.0000     8.0000 </r>
       <r>     3.3194     0.0000     8.0000 </r>
       <r>     3.4203     0.0000     8.0000 </r>
       <r>     3.5212     0.0000     8.0000 </r>
       <r>     3.6221     0.0000     8.0000 </r>
       <r>     3.7229     0.0000     8.0000 </r>
       <r>     3.8238     0.0000     8.0000 </r>
      </set>
      <set comment="spin 2">
       <r>   -26.4440     0.0000     0.0000 </r>
       <r>   -26.3431     0.0000     0.0000 </r>
       <r>   -26.2422     0.0000     0.0000 </r>
       <r>   -26.1413     0.0000     0.0000 </r>
       <r>   -26.0404     0.0000     0.0000 </r>
       <r>   -25.9395     0.0000     0.0000 </r>
       <r>   -25.8387     0.0000     0.0000 </r>
       <r>   -25.7378     0.0000     0.0000 </r>
       <r>   -25.6369     0.0000     0.0000 </r>
       <r>   -25.5360     0.0000     0.0000 </r>
       <r>   -25.4351     0.0000     0.0000 </r>
       <r>   -25.3342     0.0000     0.0000 </r>
       <r>   -25.2333     0.0000     0.0000 </r>
       <r>   -25.1324     0.0000     0.0000 </r>
       <r>   -25.0315     0.0000     0.0000 </r>
       <r>   -24.9306     0.0000     0.0000 </r>
       <r>   -24.8297     0.0000     0.0000 </r>
       <r>   -24.7288     0.0000     0.0000 </r>
       <r>   -24.6279     0.0000     0.0000 </r>
       <r>   -24.5270     0.0000     0.0000 </r>
       <r>   -24.4262     0.0000     0.0000 </r>
       <r>   -24.3253     0.0000     0.0000 </r>
       <r>   -24.2244     0.0000     0.0000 </r>
       <r>   -24.1235     0.0000     0.0000 </r>
       <r>   -24.0226     0.0000     0.0000 </r>
       <r>   -23.9217     0.0000     0.0000 </r>
       <r>   -23.8208     0.0000     0.0000 </r>
       <r>   -23.7199     0.0000     0.0000 </r>
       <r>   -23.6190     0.0000     0.0000 </r>
       <r>   -23.5181     0.0000     0.0000 </r>
       <r>   -23.4172     0.0000     0.0000 </r>
       <r>   -23.3163     0.0000     0.0000 </r>
       <r>   -23.2154     0.0000     0.0000 </r>
       <r>   -23.1145     0.0000     0.0000 </r>
       <r>   -23.0137     0.0000     0.0000 </r>
       <r>   -22.9128     0.0000     0.0000 </r>
       <r>   -22.8119     0.0000     0.0000 </r>
       <r>   -22.7110     0.0000     0.0000 </r>
       <r>   -22.6101     0.0000     0.0000 </r>
       <r>   -22.5092     0.0000     0.0000 </r>
       <r>   -22.4083     0.0000     0.0000 </r>
       <r>   -22.3074     0.0000     0.0000 </r>
       <r>   -22.2065     0.0000     0.0000 </r>
       <r>   -22.1056     0.0000     0.0000 </r>
       <r>   -22.0047     0.0000     0.0000 </r>
       <r>   -21.9038     0.0000     0.0000 </r>
       <r>   -21.8029     0.0000     0.0000 </r>
       <r>   -21.7020     0.0000     0.0000 </r>
       <r>   -21.6012     0.0000     0.0000 </r>
       <r>   -21.5003     0.0000     0.0000 </r>
       <r>   -21.3994     6.9475     0.7009 </r>
       <r>   -21.2985     0.0000     1.0000 </r>
       <r>   -21.1976     0.0000     1.0000 </r>
       <r>   -21.0967     0.0000     1.0000 </r>
       <r>   -20.9958     0.0000     1.0000 </r>
       <r>   -20.8949     0.0000     1.0000 </r>
       <r>   -20.7940     0.0000     1.0000 </r>
       <r>   -20.6931     0.0000     1.0000 </r>
       <r>   -20.5922     0.0000     1.0000 </r>
       <r>   -20.4913     0.0000     1.0000 </r>
       <r>   -20.3904     0.0000     1.0000 </r>
       <r>   -20.2895     0.0000     1.0000 </r>
       <r>   -20.1887     0.0000     1.0000 </r>
       <r>   -20.0878     0.0000     1.0000 </r>
       <r>   -19.9869     0.0000     1.0000 </r>
       <r>   -19.8860     0.0000     1.0000 </r>
       <r>   -19.7851     0.0000     1.0000 </r>
       <r>   -19.6842     0.0000     1.0000 </r>
       <r>   -19.5833     0.0000     1.0000 </r>
       <r>   -19.4824     0.0000     1.0000 </r>
       <r>   -19.3815     0.0000     1.0000 </r>
       <r>   -19.2806     0.0000     1.0000 </r>
       <r>   -19.1797     0.0000     1.0000 </r>
       <r>   -19.0788     0.0000     1.0000 </r>
       <r>   -18.9779     0.0000     1.0000 </r>
       <r>   -18.8770     0.0000     1.0000 </r>
       <r>   -18.7762     0.0000     1.0000 </r>
       <r>   -18.6753     0.0000     1.0000 </r>
       <r>   -18.5744     0.0000     1.0000 </r>
       <r>   -18.4735     0.0000     1.0000 </r>
       <r>   -18.3726     0.0000     1.0000 </r>
       <r>   -18.2717     0.0000     1.0000 </r>
       <r>   -18.1708     0.0000     1.0000 </r>
       <r>   -18.0699     0.0000     1.0000 </r>
       <r>   -17.9690     0.0000     1.0000 </r>
       <r>   -17.8681     0.0000     1.0000 </r>
       <r>   -17.7672     0.0000     1.0000 </r>
       <r>   -17.6663     0.0000     1.0000 </r>
       <r>   -17.5654     0.0000     1.0000 </r>
       <r>   -17.4645     0.0000     1.0000 </r>
       <r>   -17.3637     0.0000     1.0000 </r>
       <r>   -17.2628     0.0000     1.0000 </r>
       <r>   -17.1619     0.0000     1.0000 </r>
       <r>   -17.0610     0.0000     1.0000 </r>
       <r>   -16.9601     0.0000     1.0000 </r>
       <r>   -16.8592     0.0000     1.0000 </r>
       <r>   -16.7583     0.0000     1.0000 </r>
       <r>   -16.6574     0.0000     1.0000 </r>
       <r>   -16.5565     0.0000     1.0000 </r>
       <r>   -16.4556     0.0000     1.0000 </r>
       <r>   -16.3547     0.0000     1.0000 </r>
       <r>   -16.2538     0.0000     1.0000 </r>
       <r>   -16.1529     0.0000     1.0000 </r>
       <r>   -16.0520     0.0000     1.0000 </r>
       <r>   -15.9512     0.0000     1.0000 </r>
       <r>   -15.8503     0.0000     1.0000 </r>
       <r>   -15.7494     0.0000     1.0000 </r>
       <r>   -15.6485     0.0000     1.0000 </r>
       <r>   -15.5476     0.0000     1.0000 </r>
       <r>   -15.4467     0.0000     1.0000 </r>
       <r>   -15.3458     0.0000     1.0000 </r>
       <r>   -15.2449     0.0000     1.0000 </r>
       <r>   -15.1440     0.0000     1.0000 </r>
       <r>   -15.0431     0.0000     1.0000 </r>
       <r>   -14.9422     0.0000     1.0000 </r>
       <r>   -14.8413     0.0000     1.0000 </r>
       <r>   -14.7404     0.0000     1.0000 </r>
       <r>   -14.6395     0.0000     1.0000 </r>
       <r>   -14.5387     0.0000     1.0000 </r>
       <r>   -14.4378     0.0000     1.0000 </r>
       <r>   -14.3369     0.0000     1.0000 </r>
       <r>   -14.2360     0.0000     1.0000 </r>
       <r>   -14.1351     0.0000     1.0000 </r>
       <r>   -14.0342     0.0000     1.0000 </r>
       <r>   -13.9333     0.0000     1.0000 </r>
       <r>   -13.8324     0.0000     1.0000 </r>
       <r>   -13.7315     0.0000     1.0000 </r>
       <r>   -13.6306     0.0000     1.0000 </r>
       <r>   -13.5297     0.0000     1.0000 </r>
       <r>   -13.4288     0.0000     1.0000 </r>
       <r>   -13.3279     0.0000     1.0000 </r>
       <r>   -13.2270     0.0000     1.0000 </r>
       <r>   -13.1262     0.0000     1.0000 </r>
       <r>   -13.0253     0.0000     1.0000 </r>
       <r>   -12.9244     0.0000     1.0000 </r>
       <r>   -12.8235     0.0000     1.0000 </r>
       <r>   -12.7226     0.0000     1.0000 </r>
       <r>   -12.6217     0.0000     1.0000 </r>
       <r>   -12.5208     0.0000     1.0000 </r>
       <r>   -12.4199     0.0000     1.0000 </r>
       <r>   -12.3190     0.0000     1.0000 </r>
       <r>   -12.2181     0.0000     1.0000 </r>
       <r>   -12.1172     0.0000     1.0000 </r>
       <r>   -12.0163     0.0000     1.0000 </r>
       <r>   -11.9154     0.0000     1.0000 </r>
       <r>   -11.8145     0.0000     1.0000 </r>
       <r>   -11.7137     0.0000     1.0000 </r>
       <r>   -11.6128     0.0000     1.0000 </r>
       <r>   -11.5119     0.0000     1.0000 </r>
       <r>   -11.4110     0.0000     1.0000 </r>
       <r>   -11.3101     0.0000     1.0000 </r>
       <r>   -11.2092     0.0000     1.0000 </r>
       <r>   -11.1083     0.0000     1.0000 </r>
       <r>   -11.0074     0.0000     1.0000 </r>
       <r>   -10.9065     0.0000     1.0000 </r>
       <r>   -10.8056     0.0000     1.0000 </r>
       <r>   -10.7047     0.0000     1.0000 </r>
       <r>   -10.6038     0.0000     1.0000 </r>
       <r>   -10.5029     0.0000     1.0000 </r>
       <r>   -10.4020     0.0000     1.0000 </r>
       <r>   -10.3012     0.0000     1.0000 </r>
       <r>   -10.2003     0.0000     1.0000 </r>
       <r>   -10.0994     0.0000     1.0000 </r>
       <r>    -9.9985     0.0000     1.0000 </r>
       <r>    -9.8976     0.0000     1.0000 </r>
       <r>    -9.7967     0.0000     1.0000 </r>
       <r>    -9.6958     0.0000     1.0000 </r>
       <r>    -9.5949     0.0000     1.0000 </r>
       <r>    -9.4940     0.0000     1.0000 </r>
       <r>    -9.3931     0.0000     1.0000 </r>
       <r>    -9.2922     0.0000     1.0000 </r>
       <r>    -9.1913     0.0000     1.0000 </r>
       <r>    -9.0904     0.0000     1.0000 </r>
       <r>    -8.9895     0.0000     1.0000 </r>
       <r>    -8.8887     0.0000     1.0000 </r>
       <r>    -8.7878     0.0000     1.0000 </r>
       <r>    -8.6869     0.0000     1.0000 </r>
       <r>    -8.5860     0.0000     1.0000 </r>
       <r>    -8.4851     0.0000     1.0000 </r>
       <r>    -8.3842     0.0000     1.0000 </r>
       <r>    -8.2833     0.0000     1.0000 </r>
       <r>    -8.1824     0.0000     1.0000 </r>
       <r>    -8.0815     0.0000     1.0000 </r>
       <r>    -7.9806     0.0000     1.0000 </r>
       <r>    -7.8797     0.0000     1.0000 </r>
       <r>    -7.7788     0.0000     1.0000 </r>
       <r>    -7.6779     0.0000     1.0000 </r>
       <r>    -7.5770     0.0000     1.0000 </r>
       <r>    -7.4762     0.0000     1.0000 </r>
       <r>    -7.3753     9.6638     1.9750 </r>
       <r>    -7.2744     0.0000     2.0000 </r>
       <r>    -7.1735     0.0000     2.0000 </r>
       <r>    -7.0726     0.0000     2.0000 </r>
       <r>    -6.9717     0.0000     2.0000 </r>
       <r>    -6.8708     0.0000     2.0000 </r>
       <r>    -6.7699     0.0000     2.0000 </r>
       <r>    -6.6690     0.0000     2.0000 </r>
       <r>    -6.5681     0.0000     2.0000 </r>
       <r>    -6.4672     0.0000     2.0000 </r>
       <r>    -6.3663     0.0000     2.0000 </r>
       <r>    -6.2654    19.5734     3.9748 </r>
       <r>    -6.1645     0.0000     4.0000 </r>
       <r>    -6.0637     0.0000     4.0000 </r>
       <r>    -5.9628     0.0000     4.0000 </r>
       <r>    -5.8619     0.0000     4.0000 </r>
       <r>    -5.7610     0.0000     4.0000 </r>
       <r>    -5.6601     0.0000     4.0000 </r>
       <r>    -5.5592     0.0000     4.0000 </r>
       <r>    -5.4583     0.0000     4.0000 </r>
       <r>    -5.3574     0.0000     4.0000 </r>
       <r>    -5.2565     0.0000     4.0000 </r>
       <r>    -5.1556     0.0000     4.0000 </r>
       <r>    -5.0547     0.0000     4.0000 </r>
       <r>    -4.9538     0.0000     4.0000 </r>
       <r>    -4.8529     0.0000     4.0000 </r>
       <r>    -4.7521     0.0000     4.0000 </r>
       <r>    -4.6512     0.0000     4.0000 </r>
       <r>    -4.5503     0.0000     4.0000 </r>
       <r>    -4.4494     0.0000     4.0000 </r>
       <r>    -4.3485     0.0000     4.0000 </r>
       <r>    -4.2476     0.0000     4.0000 </r>
       <r>    -4.1467     0.0000     4.0000 </r>
       <r>    -4.0458     0.0000     4.0000 </r>
       <r>    -3.9449     0.0000     4.0000 </r>
       <r>    -3.8440     0.0000     4.0000 </r>
       <r>    -3.7431     0.0000     4.0000 </r>
       <r>    -3.6422     0.0000     4.0000 </r>
       <r>    -3.5413     0.0000     4.0000 </r>
       <r>    -3.4404     0.0000     4.0000 </r>
       <r>    -3.3396     0.0000     4.0000 </r>
       <r>    -3.2387     0.0000     4.0000 </r>
       <r>    -3.1378     0.0000     4.0000 </r>
       <r>    -3.0369     0.0000     4.0000 </r>
       <r>    -2.9360     0.0000     4.0000 </r>
       <r>    -2.8351     0.0000     4.0000 </r>
       <r>    -2.7342     0.0000     4.0000 </r>
       <r>    -2.6333     0.0000     4.0000 </r>
       <r>    -2.5324     0.0000     4.0000 </r>
       <r>    -2.4315     0.0000     4.0000 </r>
       <r>    -2.3306     0.0000     4.0000 </r>
       <r>    -2.2297     0.0000     4.0000 </r>
       <r>    -2.1288     0.0000     4.0000 </r>
       <r>    -2.0279     0.0000     4.0000 </r>
       <r>    -1.9271     0.0000     4.0000 </r>
       <r>    -1.8262     0.0000     4.0000 </r>
       <r>    -1.7253     0.0000     4.0000 </r>
       <r>    -1.6244     0.0000     4.0000 </r>
       <r>    -1.5235     0.0000     4.0000 </r>
       <r>    -1.4226     0.0000     4.0000 </r>
       <r>    -1.3217     0.0000     4.0000 </r>
       <r>    -1.2208     0.0000     4.0000 </r>
       <r>    -1.1199     0.0000     4.0000 </r>
       <r>    -1.0190     0.0000     4.0000 </r>
       <r>    -0.9181     0.0000     4.0000 </r>
       <r>    -0.8172     0.0000     4.0000 </r>
       <r>    -0.7163     0.0000     4.0000 </r>
       <r>    -0.6154     0.0000     4.0000 </r>
       <r>    -0.5146     0.0000     4.0000 </r>
       <r>    -0.4137     0.0000     4.0000 </r>
       <r>    -0.3128     9.8281     4.9916 </r>
       <r>    -0.2119     0.0000     5.0000 </r>
       <r>    -0.1110     0.0000     5.0000 </r>
       <r>    -0.0101     0.0000     5.0000 </r>
       <r>     0.0908     0.0000     5.0000 </r>
       <r>     0.1917     0.0000     5.0000 </r>
       <r>     0.2926     0.0000     5.0000 </r>
       <r>     0.3935     0.0000     5.0000 </r>
       <r>     0.4944     0.0000     5.0000 </r>
       <r>     0.5953     0.0000     5.0000 </r>
       <r>     0.6962     0.0000     5.0000 </r>
       <r>     0.7971     0.0000     5.0000 </r>
       <r>     0.8979     0.0000     5.0000 </r>
       <r>     0.9988     0.0000     5.0000 </r>
       <r>     1.0997     0.0000     5.0000 </r>
       <r>     1.2006     0.0000     5.0000 </r>
       <r>     1.3015     0.0000     5.0000 </r>
       <r>     1.4024     0.0000     5.0000 </r>
       <r>     1.5033     0.0000     5.0000 </r>
       <r>     1.6042     0.0000     5.0000 </r>
       <r>     1.7051     0.0000     5.0000 </r>
       <r>     1.8060     0.0000     5.0000 </r>
       <r>     1.9069     0.6466     5.0652 </r>
       <r>     2.0078     0.0000     6.0000 </r>
       <r>     2.1087     0.0000     6.0000 </r>
       <r>     2.2096     9.9114     7.0000 </r>
       <r>     2.3104     0.0000     7.0000 </r>
       <r>     2.4113     0.0000     7.0000 </r>
       <r>     2.5122     9.9115     8.0000 </r>
       <r>     2.6131     0.0000     8.0000 </r>
       <r>     2.7140     0.0000     8.0000 </r>
       <r>     2.8149     0.0000     8.0000 </r>
       <r>     2.9158     0.0000     8.0000 </r>
       <r>     3.0167     0.0000     8.0000 </r>
       <r>     3.1176     0.0000     8.0000 </r>
       <r>     3.2185     0.0000     8.0000 </r>
       <r>     3.3194     0.0000     8.0000 </r>
       <r>     3.4203     0.0000     8.0000 </r>
       <r>     3.5212     0.0000     8.0000 </r>
       <r>     3.6221     0.0000     8.0000 </r>
       <r>     3.7229     0.0000     8.0000 </r>
       <r>     3.8238     0.0000     8.0000 </r>
      </set>
     </set>
    </array>
   </total>
  </dos>
 </calculation>
 <structure name="finalpos" >
  <crystal>
   <varray name="basis" >
    <v>       7.00000000       0.00000000       0.00000000 </v>
    <v>       0.00000000       7.50000000       0.00000000 </v>
    <v>       0.00000000       0.00000000       8.00000000 </v>
   </varray>
   <i name="volume">    420.00000000 </i>
   <varray name="rec_basis" >
    <v>       0.14285714       0.00000000       0.00000000 </v>
    <v>       0.00000000       0.13333333       0.00000000 </v>
    <v>       0.00000000       0.00000000       0.12500000 </v>
   </varray>
  </crystal>
  <varray name="positions" >
   <v>       0.00000000       0.00000000       0.00000000 </v>
  </varray>
 </structure>
</modeling>
