<?xml version="1.0" encoding="ISO-8859-1"?>
<modeling>
 <generator>
  <i name="program" type="string">vasp </i>
  <i name="version" type="string">5.4.4.18Apr17-6-g9f103f2a35  </i>
  <i name="subversion" type="string">(build Dec 28 2021 15:39:15) complex            parallel </i>
  <i name="platform" type="string">LinuxGNU </i>
  <i name="date" type="string">2021 12 28 </i>
  <i name="time" type="string">18:06:31 </i>
 </generator>
 <incar>
  <i type="string" name="SYSTEM"> O atom in a box</i>
  <i type="string" name="PREC">normal</i>
  <i type="int" name="ISMEAR">     0</i>
  <v type="int" name="KPOINT_BSE">    -1     0     0     0</v>
 </incar>
 <structure name="primitive_cell" >
  <crystal>
   <varray name="basis" >
    <v>       8.00000000       0.00000000       0.00000000 </v>
    <v>       0.00000000       8.00000000       0.00000000 </v>
    <v>       0.00000000       0.00000000       8.00000000 </v>
   </varray>
   <i name="volume">    512.00000000 </i>
   <varray name="rec_basis" >
    <v>       0.12500000       0.00000000       0.00000000 </v>
    <v>       0.00000000       0.12500000       0.00000000 </v>
    <v>       0.00000000       0.00000000       0.12500000 </v>
   </varray>
  </crystal>
  <varray name="positions" >
   <v>       0.00000000       0.00000000       0.00000000 </v>
  </varray>
 </structure>
 <varray name="primitive_index" >
  <v type="int" >        1 </v>
 </varray>
 <kpoints>
  <varray name="kpointlist" >
   <v>       0.00000000       0.00000000       0.00000000 </v>
  </varray>
  <varray name="weights" >
   <v>       1.00000000 </v>
  </varray>
 </kpoints>
 <parameters>
  <separator name="general" >
   <i type="string" name="SYSTEM">O atom in a box</i>
   <i type="logical" name="LCOMPAT"> F  </i>
  </separator>
  <separator name="electronic" >
   <i type="string" name="PREC">normal</i>
   <i name="ENMAX">    400.00000000</i>
   <i name="ENAUG">    605.39200000</i>
   <i name="EDIFF">      0.00010000</i>
   <i type="int" name="IALGO">    38</i>
   <i type="int" name="IWAVPR">    10</i>
   <i type="int" name="NBANDS">     8</i>
   <i name="NELECT">      6.00000000</i>
   <i type="int" name="TURBO">     0</i>
   <i type="int" name="IRESTART">     0</i>
   <i type="int" name="NREBOOT">     0</i>
   <i type="int" name="NMIN">     0</i>
   <i name="EREF">      0.00000000</i>
   <separator name="electronic smearing" >
    <i type="int" name="ISMEAR">     0</i>
    <i name="SIGMA">      0.20000000</i>
    <i name="KSPACING">      0.50000000</i>
    <i type="logical" name="KGAMMA"> T  </i>
   </separator>
   <separator name="electronic projectors" >
    <i type="logical" name="LREAL"> F  </i>
    <v name="ROPT">      0.00000000</v>
    <i type="int" name="LMAXPAW">  -100</i>
    <i type="int" name="LMAXMIX">     2</i>
    <i type="logical" name="NLSPLINE"> F  </i>
   </separator>
   <separator name="electronic startup" >
    <i type="int" name="ISTART">     0</i>
    <i type="int" name="ICHARG">     2</i>
    <i type="int" name="INIWAV">     1</i>
   </separator>
   <separator name="electronic spin" >
    <i type="int" name="ISPIN">     1</i>
    <i type="logical" name="LNONCOLLINEAR"> F  </i>
    <v name="MAGMOM">      1.00000000</v>
    <i name="NUPDOWN">     -1.00000000</i>
    <i type="logical" name="LSORBIT"> F  </i>
    <v name="SAXIS">      0.00000000      0.00000000      1.00000000</v>
    <i type="logical" name="LSPIRAL"> F  </i>
    <v name="QSPIRAL">      0.00000000      0.00000000      0.00000000</v>
    <i type="logical" name="LZEROZ"> F  </i>
   </separator>
   <separator name="electronic exchange-correlation" >
    <i type="logical" name="LASPH"> F  </i>
    <i type="logical" name="LMETAGGA"> F  </i>
   </separator>
   <separator name="electronic convergence" >
    <i type="int" name="NELM">    60</i>
    <i type="int" name="NELMDL">    -5</i>
    <i type="int" name="NELMIN">     2</i>
    <i name="ENINI">    400.00000000</i>
    <separator name="electronic convergence detail" >
     <i type="logical" name="LDIAG"> T  </i>
     <i type="logical" name="LSUBROT"> F  </i>
     <i name="WEIMIN">      0.00000000</i>
     <i name="EBREAK">      0.00000313</i>
     <i name="DEPER">      0.30000000</i>
     <i type="int" name="NRMM">     4</i>
     <i name="TIME">      0.40000000</i>
    </separator>
   </separator>
   <separator name="electronic mixer" >
    <i name="AMIX">      0.40000000</i>
    <i name="BMIX">      1.00000000</i>
    <i name="AMIN">      0.10000000</i>
    <i name="AMIX_MAG">      1.60000000</i>
    <i name="BMIX_MAG">      1.00000000</i>
    <separator name="electronic mixer details" >
     <i type="int" name="IMIX">     4</i>
     <i type="logical" name="MIXFIRST"> F  </i>
     <i type="int" name="MAXMIX">   -45</i>
     <i name="WC">    100.00000000</i>
     <i type="int" name="INIMIX">     1</i>
     <i type="int" name="MIXPRE">     1</i>
     <i type="int" name="MREMOVE">     5</i>
    </separator>
   </separator>
   <separator name="electronic dipolcorrection" >
    <i type="logical" name="LDIPOL"> F  </i>
    <i type="logical" name="LMONO"> F  </i>
    <i type="int" name="IDIPOL">     0</i>
    <i name="EPSILON">      1.00000000</i>
    <v name="DIPOL">   -100.00000000   -100.00000000   -100.00000000</v>
    <i name="EFIELD">      0.00000000</i>
   </separator>
  </separator>
  <separator name="grids" >
   <i type="int" name="NGX">    40</i>
   <i type="int" name="NGY">    40</i>
   <i type="int" name="NGZ">    40</i>
   <i type="int" name="NGXF">    80</i>
   <i type="int" name="NGYF">    80</i>
   <i type="int" name="NGZF">    80</i>
   <i type="logical" name="ADDGRID"> F  </i>
  </separator>
  <separator name="ionic" >
   <i type="int" name="NSW">     0</i>
   <i type="int" name="IBRION">    -1</i>
   <i type="int" name="MDALGO">     0</i>
   <i type="int" name="ISIF">     2</i>
   <i name="PSTRESS">      0.00000000</i>
   <i name="EDIFFG">      0.00100000</i>
   <i type="int" name="NFREE">     0</i>
   <i name="POTIM">      0.50000000</i>
   <i name="SMASS">     -3.00000000</i>
   <i name="SCALEE">      1.00000000</i>
  </separator>
  <separator name="ionic md" >
   <i name="TEBEG">      0.00010000</i>
   <i name="TEEND">      0.00010000</i>
   <i type="int" name="NBLOCK">     1</i>
   <i type="int" name="KBLOCK">     1</i>
   <i type="int" name="NPACO">   256</i>
   <i name="APACO">     16.00000000</i>
  </separator>
  <separator name="symmetry" >
   <i type="int" name="ISYM">     2</i>
   <i name="SYMPREC">      0.00001000</i>
  </separator>
  <separator name="dos" >
   <i type="int" name="LORBIT">     0</i>
   <v name="RWIGS">     -1.00000000</v>
   <i type="int" name="NEDOS">   301</i>
   <i name="EMIN">     10.00000000</i>
   <i name="EMAX">    -10.00000000</i>
   <i name="EFERMI">      0.00000000</i>
  </separator>
  <separator name="writing" >
   <i type="int" name="NWRITE">     2</i>
   <i type="logical" name="LWAVE"> T  </i>
   <i type="logical" name="LDOWNSAMPLE"> F  </i>
   <i type="logical" name="LCHARG"> T  </i>
   <i type="logical" name="LPARD"> F  </i>
   <i type="logical" name="LVTOT"> F  </i>
   <i type="logical" name="LVHAR"> F  </i>
   <i type="logical" name="LELF"> F  </i>
   <i type="logical" name="LOPTICS"> F  </i>
   <v name="STM">      0.00000000      0.00000000      0.00000000      0.00000000      0.00000000      0.00000000      0.00000000</v>
  </separator>
  <separator name="performance" >
   <i type="int" name="NPAR">     4</i>
   <i type="int" name="NSIM">     4</i>
   <i type="int" name="NBLK">    -1</i>
   <i type="logical" name="LPLANE"> T  </i>
   <i type="logical" name="LSCALAPACK"> T  </i>
   <i type="logical" name="LSCAAWARE"> F  </i>
   <i type="logical" name="LSCALU"> F  </i>
   <i type="logical" name="LASYNC"> F  </i>
   <i type="logical" name="LORBITALREAL"> F  </i>
  </separator>
  <separator name="miscellaneous" >
   <i type="int" name="IDIOT">     3</i>
   <i type="int" name="ISPECIAL">     0</i>
   <i type="logical" name="LMUSIC"> F  </i>
   <v name="POMASS">     16.00000000</v>
   <v name="DARWINR">      0.00000000</v>
   <v name="DARWINV">      1.00000000</v>
   <i type="logical" name="LCORR"> T  </i>
  </separator>
  <i type="logical" name="GGA_COMPAT"> T  </i>
  <i type="logical" name="LBERRY"> F  </i>
  <i type="int" name="ICORELEVEL">     0</i>
  <i type="logical" name="LDAU"> F  </i>
  <i type="int" name="I_CONSTRAINED_M">     0</i>
  <separator name="electronic exchange-correlation" >
   <i type="string" name="GGA">--</i>
   <i type="int" name="VOSKOWN">     0</i>
   <i type="logical" name="LHFCALC"> F  </i>
   <i type="string" name="PRECFOCK"></i>
   <i type="logical" name="LSYMGRAD"> F  </i>
   <i type="logical" name="LHFONE"> F  </i>
   <i type="logical" name="LRHFCALC"> F  </i>
   <i type="logical" name="LTHOMAS"> F  </i>
   <i type="logical" name="LMODELHF"> F  </i>
   <i name="ENCUT4O">     -1.00000000</i>
   <i type="int" name="EXXOEP">     0</i>
   <i type="int" name="FOURORBIT">     0</i>
   <i name="AEXX">      0.00000000</i>
   <i name="HFALPHA">      0.00000000</i>
   <i name="MCALPHA">      0.00000000</i>
   <i name="ALDAX">      1.00000000</i>
   <i name="AGGAX">      1.00000000</i>
   <i name="ALDAC">      1.00000000</i>
   <i name="AGGAC">      1.00000000</i>
   <i type="int" name="NKREDX">     1</i>
   <i type="int" name="NKREDY">     1</i>
   <i type="int" name="NKREDZ">     1</i>
   <i type="logical" name="SHIFTRED"> F  </i>
   <i type="logical" name="ODDONLY"> F  </i>
   <i type="logical" name="EVENONLY"> F  </i>
   <i type="int" name="LMAXFOCK">     0</i>
   <i type="int" name="NMAXFOCKAE">     0</i>
   <i type="logical" name="LFOCKAEDFT"> F  </i>
   <i name="HFSCREEN">      0.00000000</i>
   <i name="HFSCREENC">      0.00000000</i>
   <i type="int" name="NBANDSGWLOW">     0</i>
  </separator>
  <separator name="vdW DFT" >
   <i type="logical" name="LUSE_VDW"> F  </i>
   <i name="Zab_VDW">     -0.84910000</i>
   <i name="PARAM1">      0.12340000</i>
   <i name="PARAM2">      1.00000000</i>
   <i name="PARAM3">      0.00000000</i>
  </separator>
  <separator name="model GW" >
   <i type="int" name="MODEL_GW">     0</i>
   <i name="MODEL_EPS0">    307.20000000</i>
   <i name="MODEL_ALPHA">      1.00000000</i>
  </separator>
  <separator name="linear response parameters" >
   <i type="logical" name="LEPSILON"> F  </i>
   <i type="logical" name="LRPA"> F  </i>
   <i type="logical" name="LNABLA"> F  </i>
   <i type="logical" name="LVEL"> F  </i>
   <i type="int" name="KINTER">     0</i>
   <i name="CSHIFT">      0.10000000</i>
   <i name="OMEGAMAX">     -1.00000000</i>
   <i name="DEG_THRESHOLD">      0.00200000</i>
   <i name="RTIME">     -0.10000000</i>
   <i name="WPLASMAI">      0.00000000</i>
   <v name="DFIELD">      0.00000000      0.00000000      0.00000000</v>
   <v name="WPLASMA">      0.00000000      0.00000000      0.00000000      0.00000000      0.00000000      0.00000000      0.00000000      0.00000000      0.00000000</v>
  </separator>
  <separator name="orbital magnetization" >
   <i type="logical" name="NUCIND"> F  </i>
   <v name="MAGPOS">      0.00000000      0.00000000      0.00000000</v>
   <i type="logical" name="LNICSALL"> T  </i>
   <i type="logical" name="ORBITALMAG"> F  </i>
   <i type="logical" name="LMAGBLOCH"> F  </i>
   <i type="logical" name="LCHIMAG"> F  </i>
   <i type="logical" name="LGAUGE"> T  </i>
   <i type="int" name="MAGATOM">     0</i>
   <v name="MAGDIPOL">      0.00000000      0.00000000      0.00000000</v>
   <v name="AVECCONST">      0.00000000      0.00000000      0.00000000</v>
  </separator>
  <separator name="response functions" >
   <i type="logical" name="LADDER"> F  </i>
   <i type="logical" name="LRPAFORCE"> F  </i>
   <i type="logical" name="LFXC"> F  </i>
   <i type="logical" name="LHARTREE"> T  </i>
   <i type="int" name="IBSE">     0</i>
   <v type="int" name="KPOINT">    -1     0     0     0</v>
   <i type="logical" name="LTCTE"> F  </i>
   <i type="logical" name="LTETE"> F  </i>
   <i type="logical" name="LTRIPLET"> F  </i>
   <i type="logical" name="LFXCEPS"> F  </i>
   <i type="logical" name="LFXHEG"> F  </i>
   <i type="int" name="NATURALO">     2</i>
   <i type="logical" name="L2ORDER"> F  </i>
   <i type="logical" name="LMP2LT"> F  </i>
   <i type="logical" name="LUSEW"> F  </i>
   <i name="ENCUTGW">     -2.00000000</i>
   <i name="ENCUTGWSOFT">     -2.00000000</i>
   <i name="ENCUTLF">     -1.00000000</i>
   <i type="int" name="LMAXMP2">    -1</i>
   <i name="SCISSOR">      0.00000000</i>
   <i type="int" name="NOMEGA">     0</i>
   <i type="int" name="NOMEGAR">     0</i>
   <i type="int" name="NBANDSGW">    -1</i>
   <i type="int" name="NBANDSO">    -1</i>
   <i type="int" name="NBANDSV">    -1</i>
   <i type="int" name="NELM">     1</i>
   <i type="int" name="NELMHF">     1</i>
   <i type="int" name="DIM">     3</i>
   <i type="int" name="ANTIRES">     0</i>
   <i name="OMEGAMAX">    -30.00000000</i>
   <i name="OMEGAMIN">    -30.00000000</i>
   <i name="OMEGATL">   -200.00000000</i>
   <i type="int" name="OMEGAGRID">   140</i>
   <i name="CSHIFT">     -0.10000000</i>
   <i type="logical" name="SELFENERGY"> F  </i>
   <i type="logical" name="LSPECTRAL"> F  </i>
   <i type="logical" name="LSPECTRALGW"> F  </i>
   <i type="logical" name="LSINGLES"> F  </i>
   <i type="logical" name="LFERMIGW"> F  </i>
   <i type="logical" name="ODDONLYGW"> F  </i>
   <i type="logical" name="EVENONLYGW"> F  </i>
   <i type="int" name="NKREDLFX">     1</i>
   <i type="int" name="NKREDLFY">     1</i>
   <i type="int" name="NKREDLFZ">     1</i>
   <i type="int" name="MAXMEM">  2800</i>
   <i type="int" name="TELESCOPE">     0</i>
   <i type="int" name="TAUPAR">     1</i>
   <i type="int" name="OMEGAPAR">    -1</i>
   <i name="LAMBDA">      1.00000000</i>
  </separator>
  <separator name="External order field" >
   <i name="OFIELD_KAPPA">      0.00000000</i>
   <v name="OFIELD_K">      0.00000000      0.00000000      0.00000000</v>
   <i name="OFIELD_Q6_NEAR">      0.00000000</i>
   <i name="OFIELD_Q6_FAR">      0.00000000</i>
   <i name="OFIELD_A">      0.00000000</i>
  </separator>
 </parameters>
 <atominfo>
  <atoms>       1 </atoms>
  <types>       1 </types>
  <array name="atoms" >
   <dimension dim="1">ion</dimension>
   <field type="string">element</field>
   <field type="int">atomtype</field>
   <set>
    <rc><c>O </c><c>   1</c></rc>
   </set>
  </array>
  <array name="atomtypes" >
   <dimension dim="1">type</dimension>
   <field type="int">atomspertype</field>
   <field type="string">element</field>
   <field>mass</field>
   <field>valence</field>
   <field type="string">pseudopotential</field>
   <set>
    <rc><c>   1</c><c>O </c><c>     16.00000000</c><c>      6.00000000</c><c> PAW_RPBE O 08Apr2002                   </c></rc>
   </set>
  </array>
 </atominfo>
 <structure name="initialpos" >
  <crystal>
   <varray name="basis" >
    <v>       8.00000000       0.00000000       0.00000000 </v>
    <v>       0.00000000       8.00000000       0.00000000 </v>
    <v>       0.00000000       0.00000000       8.00000000 </v>
   </varray>
   <i name="volume">    512.00000000 </i>
   <varray name="rec_basis" >
    <v>       0.12500000       0.00000000       0.00000000 </v>
    <v>       0.00000000       0.12500000       0.00000000 </v>
    <v>       0.00000000       0.00000000       0.12500000 </v>
   </varray>
  </crystal>
  <varray name="positions" >
   <v>       0.00000000       0.00000000       0.00000000 </v>
  </varray>
 </structure>
 <calculation>
  <scstep>
   <time name="dav">    0.02    0.02</time>
   <time name="total">    0.09    0.09</time>
   <energy>
    <i name="alphaZ">      0.27135287 </i>
    <i name="ewald">    -91.92708002 </i>
    <i name="hartreedc">   -281.84385691 </i>
    <i name="XCdc">     26.11948841 </i>
    <i name="pawpsdc">    245.99840262 </i>
    <i name="pawaedc">   -247.84808825 </i>
    <i name="eentropy">     -0.08636665 </i>
    <i name="bandstr">    -44.50008162 </i>
    <i name="atom">    432.26319604 </i>
    <i name="e_fr_energy">     38.44696648 </i>
    <i name="e_wo_entrp">     38.53333313 </i>
    <i name="e_0_energy">     38.49014980 </i>
   </energy>
  </scstep>
  <scstep>
   <time name="dav">    0.03    0.03</time>
   <time name="total">    0.03    0.03</time>
   <energy>
    <i name="e_fr_energy">      3.45965629 </i>
    <i name="e_wo_entrp">      3.46410627 </i>
    <i name="e_0_energy">      3.46188128 </i>
   </energy>
  </scstep>
  <scstep>
   <time name="dav">    0.02    0.02</time>
   <time name="total">    0.02    0.02</time>
   <energy>
    <i name="e_fr_energy">     -0.24448587 </i>
    <i name="e_wo_entrp">      0.06285353 </i>
    <i name="e_0_energy">     -0.09081617 </i>
   </energy>
  </scstep>
  <scstep>
   <time name="dav">    0.02    0.02</time>
   <time name="total">    0.02    0.02</time>
   <energy>
    <i name="e_fr_energy">     -0.31255702 </i>
    <i name="e_wo_entrp">     -0.00403255 </i>
    <i name="e_0_energy">     -0.15829479 </i>
   </energy>
  </scstep>
  <scstep>
   <time name="dav">    0.03    0.03</time>
   <time name="total">    0.05    0.05</time>
   <energy>
    <i name="e_fr_energy">     -0.31352031 </i>
    <i name="e_wo_entrp">     -0.00499567 </i>
    <i name="e_0_energy">     -0.15925799 </i>
   </energy>
  </scstep>
  <scstep>
   <time name="dav">    0.02    0.02</time>
   <time name="total">    0.09    0.09</time>
   <energy>
    <i name="e_fr_energy">     -0.31454047 </i>
    <i name="e_wo_entrp">     -0.00601583 </i>
    <i name="e_0_energy">     -0.16027815 </i>
   </energy>
  </scstep>
  <scstep>
   <time name="dav">    0.02    0.02</time>
   <time name="total">    0.08    0.08</time>
   <energy>
    <i name="alphaZ">      0.27135287 </i>
    <i name="ewald">    -91.92708002 </i>
    <i name="hartreedc">   -281.59600957 </i>
    <i name="XCdc">     26.10397619 </i>
    <i name="pawpsdc">    248.72282248 </i>
    <i name="pawaedc">   -250.54047123 </i>
    <i name="eentropy">     -0.30852464 </i>
    <i name="bandstr">    -83.30389934 </i>
    <i name="atom">    432.26319604 </i>
    <i name="e_fr_energy">     -0.31463722 </i>
    <i name="e_wo_entrp">     -0.00611258 </i>
    <i name="e_0_energy">     -0.16037490 </i>
   </energy>
  </scstep>
  <structure>
   <crystal>
    <varray name="basis" >
     <v>       8.00000000       0.00000000       0.00000000 </v>
     <v>       0.00000000       8.00000000       0.00000000 </v>
     <v>       0.00000000       0.00000000       8.00000000 </v>
    </varray>
    <i name="volume">    512.00000000 </i>
    <varray name="rec_basis" >
     <v>       0.12500000       0.00000000       0.00000000 </v>
     <v>       0.00000000       0.12500000       0.00000000 </v>
     <v>       0.00000000       0.00000000       0.12500000 </v>
    </varray>
   </crystal>
   <varray name="positions" >
    <v>       0.00000000       0.00000000       0.00000000 </v>
   </varray>
  </structure>
  <varray name="forces" >
   <v>       0.00000000       0.00000000       0.00000000 </v>
  </varray>
  <varray name="stress" >
   <v>      -2.33694749      -0.00000000      -0.00000000 </v>
   <v>       0.00000000      -2.33694749       0.00000000 </v>
   <v>      -0.00000000       0.00000000      -2.33694749 </v>
  </varray>
  <energy>
   <i name="e_fr_energy">     -0.31463722 </i>
   <i name="e_wo_entrp">     -0.16037490 </i>
   <i name="e_0_energy">     -0.30852464 </i>
  </energy>
  <time name="totalsc">    0.86    0.86</time>
  <eigenvalues>
   <array>
    <dimension dim="1">band</dimension>
    <dimension dim="2">kpoint</dimension>
    <dimension dim="3">spin</dimension>
    <field>eigene</field>
    <field>occ</field>
    <set>
     <set comment="spin 1">
      <set comment="kpoint 1">
       <r>  -23.8439    1.0000 </r>
       <r>   -8.9040    0.6667 </r>
       <r>   -8.9040    0.6667 </r>
       <r>   -8.9040    0.6667 </r>
       <r>   -0.4676    0.0000 </r>
       <r>    1.8633    0.0000 </r>
       <r>    1.8633    0.0000 </r>
       <r>    1.8633    0.0000 </r>
      </set>
     </set>
    </set>
   </array>
  </eigenvalues>
  <separator name="orbital magnetization" >
   <v name="MAGDIPOLOUT">      0.00000000      0.00000000      0.00000000</v>
  </separator>
  <dos>
   <i name="efermi">     -8.84311622 </i>
   <total>
    <array>
     <dimension dim="1">gridpoints</dimension>
     <dimension dim="2">spin</dimension>
     <field>energy</field>
     <field>total</field>
     <field>integrated</field>
     <set>
      <set comment="spin 1">
       <r>   -25.8439     0.0000     0.0000 </r>
       <r>   -25.7449     0.0000     0.0000 </r>
       <r>   -25.6458     0.0000     0.0000 </r>
       <r>   -25.5468     0.0000     0.0000 </r>
       <r>   -25.4478     0.0000     0.0000 </r>
       <r>   -25.3488     0.0000     0.0000 </r>
       <r>   -25.2497     0.0000     0.0000 </r>
       <r>   -25.1507     0.0000     0.0000 </r>
       <r>   -25.0517     0.0000     0.0000 </r>
       <r>   -24.9527     0.0000     0.0000 </r>
       <r>   -24.8536     0.0000     0.0000 </r>
       <r>   -24.7546     0.0000     0.0000 </r>
       <r>   -24.6556     0.0000     0.0000 </r>
       <r>   -24.5566     0.0000     0.0000 </r>
       <r>   -24.4576     0.0001     0.0000 </r>
       <r>   -24.3585     0.0026     0.0003 </r>
       <r>   -24.2595     0.0305     0.0033 </r>
       <r>   -24.1605     0.2210     0.0252 </r>
       <r>   -24.0615     0.9974     0.1239 </r>
       <r>   -23.9624     2.8070     0.4019 </r>
       <r>   -23.8634     4.9313     0.8902 </r>
       <r>   -23.7644     5.4107     1.4260 </r>
       <r>   -23.6654     3.7080     1.7932 </r>
       <r>   -23.5663     1.5867     1.9503 </r>
       <r>   -23.4673     0.4236     1.9923 </r>
       <r>   -23.3683     0.0705     1.9992 </r>
       <r>   -23.2693     0.0073     2.0000 </r>
       <r>   -23.1702     0.0005     2.0000 </r>
       <r>   -23.0712     0.0000     2.0000 </r>
       <r>   -22.9722     0.0000     2.0000 </r>
       <r>   -22.8732     0.0000     2.0000 </r>
       <r>   -22.7741     0.0000     2.0000 </r>
       <r>   -22.6751     0.0000     2.0000 </r>
       <r>   -22.5761     0.0000     2.0000 </r>
       <r>   -22.4771     0.0000     2.0000 </r>
       <r>   -22.3780     0.0000     2.0000 </r>
       <r>   -22.2790     0.0000     2.0000 </r>
       <r>   -22.1800     0.0000     2.0000 </r>
       <r>   -22.0810     0.0000     2.0000 </r>
       <r>   -21.9820     0.0000     2.0000 </r>
       <r>   -21.8829     0.0000     2.0000 </r>
       <r>   -21.7839     0.0000     2.0000 </r>
       <r>   -21.6849     0.0000     2.0000 </r>
       <r>   -21.5859     0.0000     2.0000 </r>
       <r>   -21.4868     0.0000     2.0000 </r>
       <r>   -21.3878     0.0000     2.0000 </r>
       <r>   -21.2888     0.0000     2.0000 </r>
       <r>   -21.1898     0.0000     2.0000 </r>
       <r>   -21.0907     0.0000     2.0000 </r>
       <r>   -20.9917     0.0000     2.0000 </r>
       <r>   -20.8927     0.0000     2.0000 </r>
       <r>   -20.7937     0.0000     2.0000 </r>
       <r>   -20.6946     0.0000     2.0000 </r>
       <r>   -20.5956     0.0000     2.0000 </r>
       <r>   -20.4966     0.0000     2.0000 </r>
       <r>   -20.3976     0.0000     2.0000 </r>
       <r>   -20.2985     0.0000     2.0000 </r>
       <r>   -20.1995     0.0000     2.0000 </r>
       <r>   -20.1005     0.0000     2.0000 </r>
       <r>   -20.0015     0.0000     2.0000 </r>
       <r>   -19.9024     0.0000     2.0000 </r>
       <r>   -19.8034     0.0000     2.0000 </r>
       <r>   -19.7044     0.0000     2.0000 </r>
       <r>   -19.6054     0.0000     2.0000 </r>
       <r>   -19.5064     0.0000     2.0000 </r>
       <r>   -19.4073     0.0000     2.0000 </r>
       <r>   -19.3083     0.0000     2.0000 </r>
       <r>   -19.2093     0.0000     2.0000 </r>
       <r>   -19.1103     0.0000     2.0000 </r>
       <r>   -19.0112     0.0000     2.0000 </r>
       <r>   -18.9122     0.0000     2.0000 </r>
       <r>   -18.8132     0.0000     2.0000 </r>
       <r>   -18.7142     0.0000     2.0000 </r>
       <r>   -18.6151     0.0000     2.0000 </r>
       <r>   -18.5161     0.0000     2.0000 </r>
       <r>   -18.4171     0.0000     2.0000 </r>
       <r>   -18.3181     0.0000     2.0000 </r>
       <r>   -18.2190     0.0000     2.0000 </r>
       <r>   -18.1200     0.0000     2.0000 </r>
       <r>   -18.0210     0.0000     2.0000 </r>
       <r>   -17.9220     0.0000     2.0000 </r>
       <r>   -17.8229     0.0000     2.0000 </r>
       <r>   -17.7239     0.0000     2.0000 </r>
       <r>   -17.6249     0.0000     2.0000 </r>
       <r>   -17.5259     0.0000     2.0000 </r>
       <r>   -17.4268     0.0000     2.0000 </r>
       <r>   -17.3278     0.0000     2.0000 </r>
       <r>   -17.2288     0.0000     2.0000 </r>
       <r>   -17.1298     0.0000     2.0000 </r>
       <r>   -17.0308     0.0000     2.0000 </r>
       <r>   -16.9317     0.0000     2.0000 </r>
       <r>   -16.8327     0.0000     2.0000 </r>
       <r>   -16.7337     0.0000     2.0000 </r>
       <r>   -16.6347     0.0000     2.0000 </r>
       <r>   -16.5356     0.0000     2.0000 </r>
       <r>   -16.4366     0.0000     2.0000 </r>
       <r>   -16.3376     0.0000     2.0000 </r>
       <r>   -16.2386     0.0000     2.0000 </r>
       <r>   -16.1395     0.0000     2.0000 </r>
       <r>   -16.0405     0.0000     2.0000 </r>
       <r>   -15.9415     0.0000     2.0000 </r>
       <r>   -15.8425     0.0000     2.0000 </r>
       <r>   -15.7434     0.0000     2.0000 </r>
       <r>   -15.6444     0.0000     2.0000 </r>
       <r>   -15.5454     0.0000     2.0000 </r>
       <r>   -15.4464     0.0000     2.0000 </r>
       <r>   -15.3473     0.0000     2.0000 </r>
       <r>   -15.2483     0.0000     2.0000 </r>
       <r>   -15.1493     0.0000     2.0000 </r>
       <r>   -15.0503     0.0000     2.0000 </r>
       <r>   -14.9512     0.0000     2.0000 </r>
       <r>   -14.8522     0.0000     2.0000 </r>
       <r>   -14.7532     0.0000     2.0000 </r>
       <r>   -14.6542     0.0000     2.0000 </r>
       <r>   -14.5552     0.0000     2.0000 </r>
       <r>   -14.4561     0.0000     2.0000 </r>
       <r>   -14.3571     0.0000     2.0000 </r>
       <r>   -14.2581     0.0000     2.0000 </r>
       <r>   -14.1591     0.0000     2.0000 </r>
       <r>   -14.0600     0.0000     2.0000 </r>
       <r>   -13.9610     0.0000     2.0000 </r>
       <r>   -13.8620     0.0000     2.0000 </r>
       <r>   -13.7630     0.0000     2.0000 </r>
       <r>   -13.6639     0.0000     2.0000 </r>
       <r>   -13.5649     0.0000     2.0000 </r>
       <r>   -13.4659     0.0000     2.0000 </r>
       <r>   -13.3669     0.0000     2.0000 </r>
       <r>   -13.2678     0.0000     2.0000 </r>
       <r>   -13.1688     0.0000     2.0000 </r>
       <r>   -13.0698     0.0000     2.0000 </r>
       <r>   -12.9708     0.0000     2.0000 </r>
       <r>   -12.8717     0.0000     2.0000 </r>
       <r>   -12.7727     0.0000     2.0000 </r>
       <r>   -12.6737     0.0000     2.0000 </r>
       <r>   -12.5747     0.0000     2.0000 </r>
       <r>   -12.4757     0.0000     2.0000 </r>
       <r>   -12.3766     0.0000     2.0000 </r>
       <r>   -12.2776     0.0000     2.0000 </r>
       <r>   -12.1786     0.0000     2.0000 </r>
       <r>   -12.0796     0.0000     2.0000 </r>
       <r>   -11.9805     0.0000     2.0000 </r>
       <r>   -11.8815     0.0000     2.0000 </r>
       <r>   -11.7825     0.0000     2.0000 </r>
       <r>   -11.6835     0.0000     2.0000 </r>
       <r>   -11.5844     0.0000     2.0000 </r>
       <r>   -11.4854     0.0000     2.0000 </r>
       <r>   -11.3864     0.0000     2.0000 </r>
       <r>   -11.2874     0.0000     2.0000 </r>
       <r>   -11.1883     0.0000     2.0000 </r>
       <r>   -11.0893     0.0000     2.0000 </r>
       <r>   -10.9903     0.0000     2.0000 </r>
       <r>   -10.8913     0.0000     2.0000 </r>
       <r>   -10.7922     0.0000     2.0000 </r>
       <r>   -10.6932     0.0000     2.0000 </r>
       <r>   -10.5942     0.0000     2.0000 </r>
       <r>   -10.4952     0.0000     2.0000 </r>
       <r>   -10.3961     0.0000     2.0000 </r>
       <r>   -10.2971     0.0000     2.0000 </r>
       <r>   -10.1981     0.0000     2.0000 </r>
       <r>   -10.0991     0.0000     2.0000 </r>
       <r>   -10.0001     0.0000     2.0000 </r>
       <r>    -9.9010     0.0000     2.0000 </r>
       <r>    -9.8020     0.0000     2.0000 </r>
       <r>    -9.7030     0.0000     2.0000 </r>
       <r>    -9.6040     0.0000     2.0000 </r>
       <r>    -9.5049     0.0006     2.0001 </r>
       <r>    -9.4059     0.0111     2.0012 </r>
       <r>    -9.3069     0.1213     2.0132 </r>
       <r>    -9.2079     0.8268     2.0950 </r>
       <r>    -9.1088     3.5108     2.4427 </r>
       <r>    -9.0098     9.2980     3.3634 </r>
       <r>    -8.9108    15.3728     4.8857 </r>
       <r>    -8.8118    15.8743     6.4576 </r>
       <r>    -8.7127    10.2384     7.4715 </r>
       <r>    -8.6137     4.1227     7.8797 </r>
       <r>    -8.5147     1.0356     7.9823 </r>
       <r>    -8.4157     0.1621     7.9983 </r>
       <r>    -8.3166     0.0158     7.9999 </r>
       <r>    -8.2176     0.0010     8.0000 </r>
       <r>    -8.1186     0.0000     8.0000 </r>
       <r>    -8.0196     0.0000     8.0000 </r>
       <r>    -7.9205     0.0000     8.0000 </r>
       <r>    -7.8215     0.0000     8.0000 </r>
       <r>    -7.7225     0.0000     8.0000 </r>
       <r>    -7.6235     0.0000     8.0000 </r>
       <r>    -7.5245     0.0000     8.0000 </r>
       <r>    -7.4254     0.0000     8.0000 </r>
       <r>    -7.3264     0.0000     8.0000 </r>
       <r>    -7.2274     0.0000     8.0000 </r>
       <r>    -7.1284     0.0000     8.0000 </r>
       <r>    -7.0293     0.0000     8.0000 </r>
       <r>    -6.9303     0.0000     8.0000 </r>
       <r>    -6.8313     0.0000     8.0000 </r>
       <r>    -6.7323     0.0000     8.0000 </r>
       <r>    -6.6332     0.0000     8.0000 </r>
       <r>    -6.5342     0.0000     8.0000 </r>
       <r>    -6.4352     0.0000     8.0000 </r>
       <r>    -6.3362     0.0000     8.0000 </r>
       <r>    -6.2371     0.0000     8.0000 </r>
       <r>    -6.1381     0.0000     8.0000 </r>
       <r>    -6.0391     0.0000     8.0000 </r>
       <r>    -5.9401     0.0000     8.0000 </r>
       <r>    -5.8410     0.0000     8.0000 </r>
       <r>    -5.7420     0.0000     8.0000 </r>
       <r>    -5.6430     0.0000     8.0000 </r>
       <r>    -5.5440     0.0000     8.0000 </r>
       <r>    -5.4449     0.0000     8.0000 </r>
       <r>    -5.3459     0.0000     8.0000 </r>
       <r>    -5.2469     0.0000     8.0000 </r>
       <r>    -5.1479     0.0000     8.0000 </r>
       <r>    -5.0489     0.0000     8.0000 </r>
       <r>    -4.9498     0.0000     8.0000 </r>
       <r>    -4.8508     0.0000     8.0000 </r>
       <r>    -4.7518     0.0000     8.0000 </r>
       <r>    -4.6528     0.0000     8.0000 </r>
       <r>    -4.5537     0.0000     8.0000 </r>
       <r>    -4.4547     0.0000     8.0000 </r>
       <r>    -4.3557     0.0000     8.0000 </r>
       <r>    -4.2567     0.0000     8.0000 </r>
       <r>    -4.1576     0.0000     8.0000 </r>
       <r>    -4.0586     0.0000     8.0000 </r>
       <r>    -3.9596     0.0000     8.0000 </r>
       <r>    -3.8606     0.0000     8.0000 </r>
       <r>    -3.7615     0.0000     8.0000 </r>
       <r>    -3.6625     0.0000     8.0000 </r>
       <r>    -3.5635     0.0000     8.0000 </r>
       <r>    -3.4645     0.0000     8.0000 </r>
       <r>    -3.3654     0.0000     8.0000 </r>
       <r>    -3.2664     0.0000     8.0000 </r>
       <r>    -3.1674     0.0000     8.0000 </r>
       <r>    -3.0684     0.0000     8.0000 </r>
       <r>    -2.9693     0.0000     8.0000 </r>
       <r>    -2.8703     0.0000     8.0000 </r>
       <r>    -2.7713     0.0000     8.0000 </r>
       <r>    -2.6723     0.0000     8.0000 </r>
       <r>    -2.5733     0.0000     8.0000 </r>
       <r>    -2.4742     0.0000     8.0000 </r>
       <r>    -2.3752     0.0000     8.0000 </r>
       <r>    -2.2762     0.0000     8.0000 </r>
       <r>    -2.1772     0.0000     8.0000 </r>
       <r>    -2.0781     0.0000     8.0000 </r>
       <r>    -1.9791     0.0000     8.0000 </r>
       <r>    -1.8801     0.0000     8.0000 </r>
       <r>    -1.7811     0.0000     8.0000 </r>
       <r>    -1.6820     0.0000     8.0000 </r>
       <r>    -1.5830     0.0000     8.0000 </r>
       <r>    -1.4840     0.0000     8.0000 </r>
       <r>    -1.3850     0.0000     8.0000 </r>
       <r>    -1.2859     0.0000     8.0000 </r>
       <r>    -1.1869     0.0000     8.0000 </r>
       <r>    -1.0879     0.0001     8.0000 </r>
       <r>    -0.9889     0.0022     8.0002 </r>
       <r>    -0.8898     0.0263     8.0028 </r>
       <r>    -0.7908     0.1966     8.0223 </r>
       <r>    -0.6918     0.9155     8.1130 </r>
       <r>    -0.5928     2.6588     8.3762 </r>
       <r>    -0.4937     4.8198     8.8535 </r>
       <r>    -0.3947     5.4566     9.3938 </r>
       <r>    -0.2957     3.8585     9.7759 </r>
       <r>    -0.1967     1.7037     9.9446 </r>
       <r>    -0.0977     0.4693     9.9911 </r>
       <r>     0.0014     0.0806     9.9991 </r>
       <r>     0.1004     0.0086     9.9999 </r>
       <r>     0.1994     0.0006    10.0000 </r>
       <r>     0.2984     0.0000    10.0000 </r>
       <r>     0.3975     0.0000    10.0000 </r>
       <r>     0.4965     0.0000    10.0000 </r>
       <r>     0.5955     0.0000    10.0000 </r>
       <r>     0.6945     0.0000    10.0000 </r>
       <r>     0.7936     0.0000    10.0000 </r>
       <r>     0.8926     0.0000    10.0000 </r>
       <r>     0.9916     0.0000    10.0000 </r>
       <r>     1.0906     0.0000    10.0000 </r>
       <r>     1.1897     0.0001    10.0000 </r>
       <r>     1.2887     0.0014    10.0001 </r>
       <r>     1.3877     0.0219    10.0023 </r>
       <r>     1.4867     0.2114    10.0232 </r>
       <r>     1.5858     1.2707    10.1491 </r>
       <r>     1.6848     4.7600    10.6204 </r>
       <r>     1.7838    11.1241    11.7220 </r>
       <r>     1.8828    16.2320    13.3293 </r>
       <r>     1.9819    14.7939    14.7943 </r>
       <r>     2.0809     8.4209    15.6282 </r>
       <r>     2.1799     2.9921    15.9245 </r>
       <r>     2.2789     0.6630    15.9901 </r>
       <r>     2.3779     0.0915    15.9992 </r>
       <r>     2.4770     0.0079    16.0000 </r>
       <r>     2.5760     0.0004    16.0000 </r>
       <r>     2.6750     0.0000    16.0000 </r>
       <r>     2.7740     0.0000    16.0000 </r>
       <r>     2.8731     0.0000    16.0000 </r>
       <r>     2.9721     0.0000    16.0000 </r>
       <r>     3.0711     0.0000    16.0000 </r>
       <r>     3.1701     0.0000    16.0000 </r>
       <r>     3.2692     0.0000    16.0000 </r>
       <r>     3.3682     0.0000    16.0000 </r>
       <r>     3.4672     0.0000    16.0000 </r>
       <r>     3.5662     0.0000    16.0000 </r>
       <r>     3.6653     0.0000    16.0000 </r>
       <r>     3.7643     0.0000    16.0000 </r>
       <r>     3.8633     0.0000    16.0000 </r>
      </set>
     </set>
    </array>
   </total>
  </dos>
 </calculation>
 <structure name="finalpos" >
  <crystal>
   <varray name="basis" >
    <v>       8.00000000       0.00000000       0.00000000 </v>
    <v>       0.00000000       8.00000000       0.00000000 </v>
    <v>       0.00000000       0.00000000       8.00000000 </v>
   </varray>
   <i name="volume">    512.00000000 </i>
   <varray name="rec_basis" >
    <v>       0.12500000       0.00000000       0.00000000 </v>
    <v>       0.00000000       0.12500000       0.00000000 </v>
    <v>       0.00000000       0.00000000       0.12500000 </v>
   </varray>
  </crystal>
  <varray name="positions" >
   <v>       0.00000000       0.00000000       0.00000000 </v>
  </varray>
 </structure>
</modeling>
