   2   2   1   0
  0.2560000E+03  0.8000000E-09  0.8000000E-09  0.8000000E-09  0.5000000E-15
   1.0000000000000000E-004
  CAR 
 CO dimer in a box                       
      3.94848177    -30.98778510  301     -7.81248495      1.00000000
    -30.988  0.0000E+00  0.0000E+00
    -30.871  0.0000E+00  0.0000E+00
    -30.755  0.0000E+00  0.0000E+00
    -30.638  0.0000E+00  0.0000E+00
    -30.522  0.0000E+00  0.0000E+00
    -30.406  0.0000E+00  0.0000E+00
    -30.289  0.0000E+00  0.0000E+00
    -30.173  0.0000E+00  0.0000E+00
    -30.056  0.3613E-12  0.4208E-13
    -29.940  0.1443E-09  0.1685E-10
    -29.823  0.2967E-07  0.3472E-08
    -29.707  0.3142E-05  0.3693E-06
    -29.590  0.1718E-03  0.2038E-04
    -29.474  0.4872E-02  0.5877E-03
    -29.357  0.7185E-01  0.8955E-02
    -29.241  0.5534E+00  0.7341E-01
    -29.125  0.2234E+01  0.3336E+00
    -29.008  0.4743E+01  0.8860E+00
    -28.892  0.5303E+01  0.1504E+01
    -28.775  0.3124E+01  0.1867E+01
    -28.659  0.9681E+00  0.1980E+01
    -28.542  0.1575E+00  0.1998E+01
    -28.426  0.1339E-01  0.2000E+01
    -28.309  0.5934E-03  0.2000E+01
    -28.193  0.1364E-04  0.2000E+01
    -28.076  0.1622E-06  0.2000E+01
    -27.960  0.9944E-09  0.2000E+01
    -27.844  0.3135E-11  0.2000E+01
    -27.727  0.3813E-14  0.2000E+01
    -27.611  0.0000E+00  0.2000E+01
    -27.494  0.0000E+00  0.2000E+01
    -27.378  0.0000E+00  0.2000E+01
    -27.261  0.0000E+00  0.2000E+01
    -27.145  0.0000E+00  0.2000E+01
    -27.028  0.0000E+00  0.2000E+01
    -26.912  0.0000E+00  0.2000E+01
    -26.795  0.0000E+00  0.2000E+01
    -26.679  0.0000E+00  0.2000E+01
    -26.563  0.0000E+00  0.2000E+01
    -26.446  0.0000E+00  0.2000E+01
    -26.330  0.0000E+00  0.2000E+01
    -26.213  0.0000E+00  0.2000E+01
    -26.097  0.0000E+00  0.2000E+01
    -25.980  0.0000E+00  0.2000E+01
    -25.864  0.0000E+00  0.2000E+01
    -25.747  0.0000E+00  0.2000E+01
    -25.631  0.0000E+00  0.2000E+01
    -25.514  0.0000E+00  0.2000E+01
    -25.398  0.0000E+00  0.2000E+01
    -25.282  0.0000E+00  0.2000E+01
    -25.165  0.0000E+00  0.2000E+01
    -25.049  0.0000E+00  0.2000E+01
    -24.932  0.0000E+00  0.2000E+01
    -24.816  0.0000E+00  0.2000E+01
    -24.699  0.0000E+00  0.2000E+01
    -24.583  0.0000E+00  0.2000E+01
    -24.466  0.0000E+00  0.2000E+01
    -24.350  0.0000E+00  0.2000E+01
    -24.233  0.0000E+00  0.2000E+01
    -24.117  0.0000E+00  0.2000E+01
    -24.001  0.0000E+00  0.2000E+01
    -23.884  0.0000E+00  0.2000E+01
    -23.768  0.0000E+00  0.2000E+01
    -23.651  0.0000E+00  0.2000E+01
    -23.535  0.0000E+00  0.2000E+01
    -23.418  0.0000E+00  0.2000E+01
    -23.302  0.0000E+00  0.2000E+01
    -23.185  0.0000E+00  0.2000E+01
    -23.069  0.0000E+00  0.2000E+01
    -22.952  0.0000E+00  0.2000E+01
    -22.836  0.0000E+00  0.2000E+01
    -22.720  0.0000E+00  0.2000E+01
    -22.603  0.0000E+00  0.2000E+01
    -22.487  0.0000E+00  0.2000E+01
    -22.370  0.0000E+00  0.2000E+01
    -22.254  0.0000E+00  0.2000E+01
    -22.137  0.0000E+00  0.2000E+01
    -22.021  0.0000E+00  0.2000E+01
    -21.904  0.0000E+00  0.2000E+01
    -21.788  0.0000E+00  0.2000E+01
    -21.671  0.0000E+00  0.2000E+01
    -21.555  0.0000E+00  0.2000E+01
    -21.439  0.0000E+00  0.2000E+01
    -21.322  0.0000E+00  0.2000E+01
    -21.206  0.0000E+00  0.2000E+01
    -21.089  0.0000E+00  0.2000E+01
    -20.973  0.0000E+00  0.2000E+01
    -20.856  0.0000E+00  0.2000E+01
    -20.740  0.0000E+00  0.2000E+01
    -20.623  0.0000E+00  0.2000E+01
    -20.507  0.0000E+00  0.2000E+01
    -20.390  0.0000E+00  0.2000E+01
    -20.274  0.0000E+00  0.2000E+01
    -20.158  0.0000E+00  0.2000E+01
    -20.041  0.0000E+00  0.2000E+01
    -19.925  0.0000E+00  0.2000E+01
    -19.808  0.0000E+00  0.2000E+01
    -19.692  0.0000E+00  0.2000E+01
    -19.575  0.0000E+00  0.2000E+01
    -19.459  0.0000E+00  0.2000E+01
    -19.342  0.0000E+00  0.2000E+01
    -19.226  0.0000E+00  0.2000E+01
    -19.109  0.0000E+00  0.2000E+01
    -18.993  0.0000E+00  0.2000E+01
    -18.877  0.0000E+00  0.2000E+01
    -18.760  0.0000E+00  0.2000E+01
    -18.644  0.0000E+00  0.2000E+01
    -18.527  0.0000E+00  0.2000E+01
    -18.411  0.0000E+00  0.2000E+01
    -18.294  0.0000E+00  0.2000E+01
    -18.178  0.0000E+00  0.2000E+01
    -18.061  0.0000E+00  0.2000E+01
    -17.945  0.0000E+00  0.2000E+01
    -17.828  0.0000E+00  0.2000E+01
    -17.712  0.0000E+00  0.2000E+01
    -17.596  0.0000E+00  0.2000E+01
    -17.479  0.0000E+00  0.2000E+01
    -17.363  0.0000E+00  0.2000E+01
    -17.246  0.0000E+00  0.2000E+01
    -17.130  0.0000E+00  0.2000E+01
    -17.013  0.0000E+00  0.2000E+01
    -16.897  0.0000E+00  0.2000E+01
    -16.780  0.0000E+00  0.2000E+01
    -16.664  0.0000E+00  0.2000E+01
    -16.547  0.0000E+00  0.2000E+01
    -16.431  0.0000E+00  0.2000E+01
    -16.315  0.0000E+00  0.2000E+01
    -16.198  0.0000E+00  0.2000E+01
    -16.082  0.0000E+00  0.2000E+01
    -15.965  0.0000E+00  0.2000E+01
    -15.849  0.0000E+00  0.2000E+01
    -15.732  0.0000E+00  0.2000E+01
    -15.616  0.0000E+00  0.2000E+01
    -15.499  0.0000E+00  0.2000E+01
    -15.383  0.0000E+00  0.2000E+01
    -15.266  0.0000E+00  0.2000E+01
    -15.150  0.0000E+00  0.2000E+01
    -15.034  0.0000E+00  0.2000E+01
    -14.917  0.2860E-14  0.2000E+01
    -14.801  0.1957E-11  0.2000E+01
    -14.684  0.6536E-09  0.2000E+01
    -14.568  0.1122E-06  0.2000E+01
    -14.451  0.9931E-05  0.2000E+01
    -14.335  0.4543E-03  0.2000E+01
    -14.218  0.1078E-01  0.2001E+01
    -14.102  0.1333E+00  0.2017E+01
    -13.985  0.8613E+00  0.2117E+01
    -13.869  0.2920E+01  0.2457E+01
    -13.753  0.5209E+01  0.3064E+01
    -13.636  0.4894E+01  0.3634E+01
    -13.520  0.2422E+01  0.3916E+01
    -13.403  0.6305E+00  0.3989E+01
    -13.287  0.8604E-01  0.3999E+01
    -13.170  0.6133E-02  0.4000E+01
    -13.054  0.2275E-03  0.4000E+01
    -12.937  0.4376E-05  0.4000E+01
    -12.821  0.4348E-07  0.4000E+01
    -12.704  0.2226E-09  0.4000E+01
    -12.588  0.6235E-12  0.4000E+01
    -12.472  0.1925E-10  0.4000E+01
    -12.355  0.5395E-08  0.4000E+01
    -12.239  0.7779E-06  0.4000E+01
    -12.122  0.5786E-04  0.4000E+01
    -12.006  0.2227E-02  0.4000E+01
    -11.889  0.4450E-01  0.4005E+01
    -11.773  0.4636E+00  0.4059E+01
    -11.656  0.2528E+01  0.4354E+01
    -11.540  0.7237E+01  0.5197E+01
    -11.423  0.1090E+02  0.6466E+01
    -11.307  0.8657E+01  0.7475E+01
    -11.191  0.3619E+01  0.7896E+01
    -11.074  0.7952E+00  0.7989E+01
    -10.958  0.9151E-01  0.7999E+01
    -10.841  0.5496E-02  0.8000E+01
    -10.725  0.1716E-03  0.8000E+01
    -10.608  0.2775E-05  0.8000E+01
    -10.492  0.2317E-07  0.8000E+01
    -10.375  0.9957E-10  0.8000E+01
    -10.259  0.2212E-12  0.8000E+01
    -10.142  0.0000E+00  0.8000E+01
    -10.026  0.0000E+00  0.8000E+01
     -9.910  0.4767E-14  0.8000E+01
     -9.793  0.3064E-11  0.8000E+01
     -9.677  0.9743E-09  0.8000E+01
     -9.560  0.1593E-06  0.8000E+01
     -9.444  0.1343E-04  0.8000E+01
     -9.327  0.5857E-03  0.8000E+01
     -9.211  0.1325E-01  0.8002E+01
     -9.094  0.1562E+00  0.8020E+01
     -8.978  0.9627E+00  0.8132E+01
     -8.861  0.3114E+01  0.8495E+01
     -8.745  0.5299E+01  0.9112E+01
     -8.629  0.4751E+01  0.9665E+01
     -8.512  0.2244E+01  0.9926E+01
     -8.396  0.5570E+00  0.9991E+01
     -8.279  0.7249E-01  0.9999E+01
     -8.163  0.4927E-02  0.1000E+02
     -8.046  0.1742E-03  0.1000E+02
     -7.930  0.3193E-05  0.1000E+02
     -7.813  0.3023E-07  0.1000E+02
     -7.697  0.1474E-09  0.1000E+02
     -7.580  0.3699E-12  0.1000E+02
     -7.464  0.0000E+00  0.1000E+02
     -7.348  0.0000E+00  0.1000E+02
     -7.231  0.0000E+00  0.1000E+02
     -7.115  0.0000E+00  0.1000E+02
     -6.998  0.0000E+00  0.1000E+02
     -6.882  0.0000E+00  0.1000E+02
     -6.765  0.0000E+00  0.1000E+02
     -6.649  0.0000E+00  0.1000E+02
     -6.532  0.0000E+00  0.1000E+02
     -6.416  0.0000E+00  0.1000E+02
     -6.299  0.0000E+00  0.1000E+02
     -6.183  0.0000E+00  0.1000E+02
     -6.067  0.0000E+00  0.1000E+02
     -5.950  0.0000E+00  0.1000E+02
     -5.834  0.0000E+00  0.1000E+02
     -5.717  0.0000E+00  0.1000E+02
     -5.601  0.0000E+00  0.1000E+02
     -5.484  0.0000E+00  0.1000E+02
     -5.368  0.0000E+00  0.1000E+02
     -5.251  0.0000E+00  0.1000E+02
     -5.135  0.0000E+00  0.1000E+02
     -5.018  0.0000E+00  0.1000E+02
     -4.902  0.0000E+00  0.1000E+02
     -4.786  0.0000E+00  0.1000E+02
     -4.669  0.0000E+00  0.1000E+02
     -4.553  0.0000E+00  0.1000E+02
     -4.436  0.0000E+00  0.1000E+02
     -4.320  0.0000E+00  0.1000E+02
     -4.203  0.0000E+00  0.1000E+02
     -4.087  0.0000E+00  0.1000E+02
     -3.970  0.0000E+00  0.1000E+02
     -3.854  0.0000E+00  0.1000E+02
     -3.737  0.0000E+00  0.1000E+02
     -3.621  0.0000E+00  0.1000E+02
     -3.505  0.0000E+00  0.1000E+02
     -3.388  0.0000E+00  0.1000E+02
     -3.272  0.0000E+00  0.1000E+02
     -3.155  0.0000E+00  0.1000E+02
     -3.039  0.0000E+00  0.1000E+02
     -2.922  0.5873E-12  0.1000E+02
     -2.806  0.2395E-09  0.1000E+02
     -2.689  0.5033E-07  0.1000E+02
     -2.573  0.5447E-05  0.1000E+02
     -2.457  0.3045E-03  0.1000E+02
     -2.340  0.8821E-02  0.1000E+02
     -2.224  0.1329E+00  0.1002E+02
     -2.107  0.1046E+01  0.1014E+02
     -1.991  0.4312E+01  0.1064E+02
     -1.874  0.9349E+01  0.1173E+02
     -1.758  0.1068E+02  0.1297E+02
     -1.641  0.6422E+01  0.1372E+02
     -1.525  0.2033E+01  0.1396E+02
     -1.408  0.3377E+00  0.1400E+02
     -1.292  0.2935E-01  0.1400E+02
     -1.176  0.1329E-02  0.1400E+02
     -1.059  0.3128E-04  0.1400E+02
     -0.943  0.6791E-05  0.1400E+02
     -0.826  0.3142E-03  0.1400E+02
     -0.710  0.7986E-02  0.1400E+02
     -0.593  0.1057E+00  0.1401E+02
     -0.477  0.7305E+00  0.1410E+02
     -0.360  0.2649E+01  0.1441E+02
     -0.244  0.5052E+01  0.1500E+02
     -0.127  0.5076E+01  0.1559E+02
     -0.011  0.2687E+01  0.1590E+02
      0.105  0.7479E+00  0.1599E+02
      0.222  0.1092E+00  0.1600E+02
      0.338  0.8333E-02  0.1600E+02
      0.455  0.3310E-03  0.1600E+02
      0.571  0.6819E-05  0.1600E+02
      0.688  0.7262E-07  0.1600E+02
      0.804  0.1500E-08  0.1600E+02
      0.921  0.1776E-06  0.1600E+02
      1.037  0.1478E-04  0.1600E+02
      1.154  0.6377E-03  0.1600E+02
      1.270  0.1438E-01  0.1600E+02
      1.386  0.1722E+00  0.1602E+02
      1.503  0.1128E+01  0.1615E+02
      1.619  0.4294E+01  0.1665E+02
      1.736  0.1038E+02  0.1786E+02
      1.852  0.1697E+02  0.1984E+02
      1.969  0.1826E+02  0.2196E+02
      2.085  0.1195E+02  0.2336E+02
      2.202  0.4481E+01  0.2388E+02
      2.318  0.9311E+00  0.2399E+02
      2.435  0.1054E+00  0.2400E+02
      2.551  0.6435E-02  0.2400E+02
      2.667  0.2097E-03  0.2400E+02
      2.784  0.3616E-05  0.2400E+02
      2.900  0.3273E-07  0.2400E+02
      3.017  0.1545E-09  0.2400E+02
      3.133  0.3775E-12  0.2400E+02
      3.250  0.0000E+00  0.2400E+02
      3.366  0.0000E+00  0.2400E+02
      3.483  0.0000E+00  0.2400E+02
      3.599  0.0000E+00  0.2400E+02
      3.716  0.0000E+00  0.2400E+02
      3.832  0.0000E+00  0.2400E+02
      3.948  0.0000E+00  0.2400E+02
      3.94848177    -30.98778510  301     -7.81248495      1.00000000
    -30.988  0.0000E+00  0.0000E+00  0.0000E+00  0.0000E+00  0.0000E+00  0.0000E+00  0.0000E+00  0.0000E+00  0.0000E+00
    -30.871  0.0000E+00  0.0000E+00  0.0000E+00  0.0000E+00  0.0000E+00  0.0000E+00  0.0000E+00  0.0000E+00  0.0000E+00
    -30.755  0.0000E+00  0.0000E+00  0.0000E+00  0.0000E+00  0.0000E+00  0.0000E+00  0.0000E+00  0.0000E+00  0.0000E+00
    -30.638  0.0000E+00  0.0000E+00  0.0000E+00  0.0000E+00  0.0000E+00  0.0000E+00  0.0000E+00  0.0000E+00  0.0000E+00
    -30.522  0.0000E+00  0.0000E+00  0.0000E+00  0.0000E+00  0.0000E+00  0.0000E+00  0.0000E+00  0.0000E+00  0.0000E+00
    -30.406  0.0000E+00  0.0000E+00  0.0000E+00  0.0000E+00  0.0000E+00  0.0000E+00  0.0000E+00  0.0000E+00  0.0000E+00
    -30.289  0.0000E+00  0.0000E+00  0.0000E+00  0.0000E+00  0.0000E+00  0.0000E+00  0.0000E+00  0.0000E+00  0.0000E+00
    -30.173  0.0000E+00  0.0000E+00  0.0000E+00  0.0000E+00  0.0000E+00  0.0000E+00  0.0000E+00  0.0000E+00  0.0000E+00
    -30.056  0.2378E-12  0.9745E-34  0.3559E-13  0.8505E-34  0.0000E+00  0.0000E+00  0.0000E+00  0.0000E+00  0.0000E+00
    -29.940  0.9495E-10  0.3892E-31  0.1421E-10  0.3396E-31  0.0000E+00  0.0000E+00  0.0000E+00  0.0000E+00  0.0000E+00
    -29.823  0.1952E-07  0.8001E-29  0.2922E-08  0.6983E-29  0.0000E+00  0.0000E+00  0.0000E+00  0.0000E+00  0.0000E+00
    -29.707  0.2067E-05  0.8473E-27  0.3095E-06  0.7395E-27  0.0000E+00  0.0000E+00  0.0000E+00  0.0000E+00  0.0000E+00
    -29.590  0.1131E-03  0.4635E-25  0.1693E-04  0.4045E-25  0.0000E+00  0.0000E+00  0.0000E+00  0.0000E+00  0.0000E+00
    -29.474  0.3206E-02  0.1314E-23  0.4799E-03  0.1147E-23  0.0000E+00  0.0000E+00  0.0000E+00  0.0000E+00  0.0000E+00
    -29.357  0.4728E-01  0.1938E-22  0.7078E-02  0.1691E-22  0.0000E+00  0.0000E+00  0.0000E+00  0.0000E+00  0.0000E+00
    -29.241  0.3642E+00  0.1493E-21  0.5451E-01  0.1303E-21  0.0000E+00  0.0000E+00  0.0000E+00  0.0000E+00  0.0000E+00
    -29.125  0.1470E+01  0.6026E-21  0.2201E+00  0.5259E-21  0.0000E+00  0.0000E+00  0.0000E+00  0.0000E+00  0.0000E+00
    -29.008  0.3121E+01  0.1279E-20  0.4672E+00  0.1116E-20  0.0000E+00  0.0000E+00  0.0000E+00  0.0000E+00  0.0000E+00
    -28.892  0.3490E+01  0.1430E-20  0.5223E+00  0.1248E-20  0.0000E+00  0.0000E+00  0.0000E+00  0.0000E+00  0.0000E+00
    -28.775  0.2055E+01  0.8424E-21  0.3077E+00  0.7352E-21  0.0000E+00  0.0000E+00  0.0000E+00  0.0000E+00  0.0000E+00
    -28.659  0.6370E+00  0.2611E-21  0.9536E-01  0.2279E-21  0.0000E+00  0.0000E+00  0.0000E+00  0.0000E+00  0.0000E+00
    -28.542  0.1036E+00  0.4246E-22  0.1551E-01  0.3706E-22  0.0000E+00  0.0000E+00  0.0000E+00  0.0000E+00  0.0000E+00
    -28.426  0.8813E-02  0.3612E-23  0.1319E-02  0.3152E-23  0.0000E+00  0.0000E+00  0.0000E+00  0.0000E+00  0.0000E+00
    -28.309  0.3905E-03  0.1600E-24  0.5845E-04  0.1397E-24  0.0000E+00  0.0000E+00  0.0000E+00  0.0000E+00  0.0000E+00
    -28.193  0.8978E-05  0.3680E-26  0.1344E-05  0.3211E-26  0.0000E+00  0.0000E+00  0.0000E+00  0.0000E+00  0.0000E+00
    -28.076  0.1067E-06  0.4375E-28  0.1598E-07  0.3818E-28  0.0000E+00  0.0000E+00  0.0000E+00  0.0000E+00  0.0000E+00
    -27.960  0.6544E-09  0.2682E-30  0.9795E-10  0.2341E-30  0.0000E+00  0.0000E+00  0.0000E+00  0.0000E+00  0.0000E+00
    -27.844  0.2063E-11  0.8454E-33  0.3088E-12  0.7378E-33  0.0000E+00  0.0000E+00  0.0000E+00  0.0000E+00  0.0000E+00
    -27.727  0.2509E-14  0.1028E-35  0.3756E-15  0.8976E-36  0.0000E+00  0.0000E+00  0.0000E+00  0.0000E+00  0.0000E+00
    -27.611  0.0000E+00  0.0000E+00  0.0000E+00  0.0000E+00  0.0000E+00  0.0000E+00  0.0000E+00  0.0000E+00  0.0000E+00
    -27.494  0.0000E+00  0.0000E+00  0.0000E+00  0.0000E+00  0.0000E+00  0.0000E+00  0.0000E+00  0.0000E+00  0.0000E+00
    -27.378  0.0000E+00  0.0000E+00  0.0000E+00  0.0000E+00  0.0000E+00  0.0000E+00  0.0000E+00  0.0000E+00  0.0000E+00
    -27.261  0.0000E+00  0.0000E+00  0.0000E+00  0.0000E+00  0.0000E+00  0.0000E+00  0.0000E+00  0.0000E+00  0.0000E+00
    -27.145  0.0000E+00  0.0000E+00  0.0000E+00  0.0000E+00  0.0000E+00  0.0000E+00  0.0000E+00  0.0000E+00  0.0000E+00
    -27.028  0.0000E+00  0.0000E+00  0.0000E+00  0.0000E+00  0.0000E+00  0.0000E+00  0.0000E+00  0.0000E+00  0.0000E+00
    -26.912  0.0000E+00  0.0000E+00  0.0000E+00  0.0000E+00  0.0000E+00  0.0000E+00  0.0000E+00  0.0000E+00  0.0000E+00
    -26.795  0.0000E+00  0.0000E+00  0.0000E+00  0.0000E+00  0.0000E+00  0.0000E+00  0.0000E+00  0.0000E+00  0.0000E+00
    -26.679  0.0000E+00  0.0000E+00  0.0000E+00  0.0000E+00  0.0000E+00  0.0000E+00  0.0000E+00  0.0000E+00  0.0000E+00
    -26.563  0.0000E+00  0.0000E+00  0.0000E+00  0.0000E+00  0.0000E+00  0.0000E+00  0.0000E+00  0.0000E+00  0.0000E+00
    -26.446  0.0000E+00  0.0000E+00  0.0000E+00  0.0000E+00  0.0000E+00  0.0000E+00  0.0000E+00  0.0000E+00  0.0000E+00
    -26.330  0.0000E+00  0.0000E+00  0.0000E+00  0.0000E+00  0.0000E+00  0.0000E+00  0.0000E+00  0.0000E+00  0.0000E+00
    -26.213  0.0000E+00  0.0000E+00  0.0000E+00  0.0000E+00  0.0000E+00  0.0000E+00  0.0000E+00  0.0000E+00  0.0000E+00
    -26.097  0.0000E+00  0.0000E+00  0.0000E+00  0.0000E+00  0.0000E+00  0.0000E+00  0.0000E+00  0.0000E+00  0.0000E+00
    -25.980  0.0000E+00  0.0000E+00  0.0000E+00  0.0000E+00  0.0000E+00  0.0000E+00  0.0000E+00  0.0000E+00  0.0000E+00
    -25.864  0.0000E+00  0.0000E+00  0.0000E+00  0.0000E+00  0.0000E+00  0.0000E+00  0.0000E+00  0.0000E+00  0.0000E+00
    -25.747  0.0000E+00  0.0000E+00  0.0000E+00  0.0000E+00  0.0000E+00  0.0000E+00  0.0000E+00  0.0000E+00  0.0000E+00
    -25.631  0.0000E+00  0.0000E+00  0.0000E+00  0.0000E+00  0.0000E+00  0.0000E+00  0.0000E+00  0.0000E+00  0.0000E+00
    -25.514  0.0000E+00  0.0000E+00  0.0000E+00  0.0000E+00  0.0000E+00  0.0000E+00  0.0000E+00  0.0000E+00  0.0000E+00
    -25.398  0.0000E+00  0.0000E+00  0.0000E+00  0.0000E+00  0.0000E+00  0.0000E+00  0.0000E+00  0.0000E+00  0.0000E+00
    -25.282  0.0000E+00  0.0000E+00  0.0000E+00  0.0000E+00  0.0000E+00  0.0000E+00  0.0000E+00  0.0000E+00  0.0000E+00
    -25.165  0.0000E+00  0.0000E+00  0.0000E+00  0.0000E+00  0.0000E+00  0.0000E+00  0.0000E+00  0.0000E+00  0.0000E+00
    -25.049  0.0000E+00  0.0000E+00  0.0000E+00  0.0000E+00  0.0000E+00  0.0000E+00  0.0000E+00  0.0000E+00  0.0000E+00
    -24.932  0.0000E+00  0.0000E+00  0.0000E+00  0.0000E+00  0.0000E+00  0.0000E+00  0.0000E+00  0.0000E+00  0.0000E+00
    -24.816  0.0000E+00  0.0000E+00  0.0000E+00  0.0000E+00  0.0000E+00  0.0000E+00  0.0000E+00  0.0000E+00  0.0000E+00
    -24.699  0.0000E+00  0.0000E+00  0.0000E+00  0.0000E+00  0.0000E+00  0.0000E+00  0.0000E+00  0.0000E+00  0.0000E+00
    -24.583  0.0000E+00  0.0000E+00  0.0000E+00  0.0000E+00  0.0000E+00  0.0000E+00  0.0000E+00  0.0000E+00  0.0000E+00
    -24.466  0.0000E+00  0.0000E+00  0.0000E+00  0.0000E+00  0.0000E+00  0.0000E+00  0.0000E+00  0.0000E+00  0.0000E+00
    -24.350  0.0000E+00  0.0000E+00  0.0000E+00  0.0000E+00  0.0000E+00  0.0000E+00  0.0000E+00  0.0000E+00  0.0000E+00
    -24.233  0.0000E+00  0.0000E+00  0.0000E+00  0.0000E+00  0.0000E+00  0.0000E+00  0.0000E+00  0.0000E+00  0.0000E+00
    -24.117  0.0000E+00  0.0000E+00  0.0000E+00  0.0000E+00  0.0000E+00  0.0000E+00  0.0000E+00  0.0000E+00  0.0000E+00
    -24.001  0.0000E+00  0.0000E+00  0.0000E+00  0.0000E+00  0.0000E+00  0.0000E+00  0.0000E+00  0.0000E+00  0.0000E+00
    -23.884  0.0000E+00  0.0000E+00  0.0000E+00  0.0000E+00  0.0000E+00  0.0000E+00  0.0000E+00  0.0000E+00  0.0000E+00
    -23.768  0.0000E+00  0.0000E+00  0.0000E+00  0.0000E+00  0.0000E+00  0.0000E+00  0.0000E+00  0.0000E+00  0.0000E+00
    -23.651  0.0000E+00  0.0000E+00  0.0000E+00  0.0000E+00  0.0000E+00  0.0000E+00  0.0000E+00  0.0000E+00  0.0000E+00
    -23.535  0.0000E+00  0.0000E+00  0.0000E+00  0.0000E+00  0.0000E+00  0.0000E+00  0.0000E+00  0.0000E+00  0.0000E+00
    -23.418  0.0000E+00  0.0000E+00  0.0000E+00  0.0000E+00  0.0000E+00  0.0000E+00  0.0000E+00  0.0000E+00  0.0000E+00
    -23.302  0.0000E+00  0.0000E+00  0.0000E+00  0.0000E+00  0.0000E+00  0.0000E+00  0.0000E+00  0.0000E+00  0.0000E+00
    -23.185  0.0000E+00  0.0000E+00  0.0000E+00  0.0000E+00  0.0000E+00  0.0000E+00  0.0000E+00  0.0000E+00  0.0000E+00
    -23.069  0.0000E+00  0.0000E+00  0.0000E+00  0.0000E+00  0.0000E+00  0.0000E+00  0.0000E+00  0.0000E+00  0.0000E+00
    -22.952  0.0000E+00  0.0000E+00  0.0000E+00  0.0000E+00  0.0000E+00  0.0000E+00  0.0000E+00  0.0000E+00  0.0000E+00
    -22.836  0.0000E+00  0.0000E+00  0.0000E+00  0.0000E+00  0.0000E+00  0.0000E+00  0.0000E+00  0.0000E+00  0.0000E+00
    -22.720  0.0000E+00  0.0000E+00  0.0000E+00  0.0000E+00  0.0000E+00  0.0000E+00  0.0000E+00  0.0000E+00  0.0000E+00
    -22.603  0.0000E+00  0.0000E+00  0.0000E+00  0.0000E+00  0.0000E+00  0.0000E+00  0.0000E+00  0.0000E+00  0.0000E+00
    -22.487  0.0000E+00  0.0000E+00  0.0000E+00  0.0000E+00  0.0000E+00  0.0000E+00  0.0000E+00  0.0000E+00  0.0000E+00
    -22.370  0.0000E+00  0.0000E+00  0.0000E+00  0.0000E+00  0.0000E+00  0.0000E+00  0.0000E+00  0.0000E+00  0.0000E+00
    -22.254  0.0000E+00  0.0000E+00  0.0000E+00  0.0000E+00  0.0000E+00  0.0000E+00  0.0000E+00  0.0000E+00  0.0000E+00
    -22.137  0.0000E+00  0.0000E+00  0.0000E+00  0.0000E+00  0.0000E+00  0.0000E+00  0.0000E+00  0.0000E+00  0.0000E+00
    -22.021  0.0000E+00  0.0000E+00  0.0000E+00  0.0000E+00  0.0000E+00  0.0000E+00  0.0000E+00  0.0000E+00  0.0000E+00
    -21.904  0.0000E+00  0.0000E+00  0.0000E+00  0.0000E+00  0.0000E+00  0.0000E+00  0.0000E+00  0.0000E+00  0.0000E+00
    -21.788  0.0000E+00  0.0000E+00  0.0000E+00  0.0000E+00  0.0000E+00  0.0000E+00  0.0000E+00  0.0000E+00  0.0000E+00
    -21.671  0.0000E+00  0.0000E+00  0.0000E+00  0.0000E+00  0.0000E+00  0.0000E+00  0.0000E+00  0.0000E+00  0.0000E+00
    -21.555  0.0000E+00  0.0000E+00  0.0000E+00  0.0000E+00  0.0000E+00  0.0000E+00  0.0000E+00  0.0000E+00  0.0000E+00
    -21.439  0.0000E+00  0.0000E+00  0.0000E+00  0.0000E+00  0.0000E+00  0.0000E+00  0.0000E+00  0.0000E+00  0.0000E+00
    -21.322  0.0000E+00  0.0000E+00  0.0000E+00  0.0000E+00  0.0000E+00  0.0000E+00  0.0000E+00  0.0000E+00  0.0000E+00
    -21.206  0.0000E+00  0.0000E+00  0.0000E+00  0.0000E+00  0.0000E+00  0.0000E+00  0.0000E+00  0.0000E+00  0.0000E+00
    -21.089  0.0000E+00  0.0000E+00  0.0000E+00  0.0000E+00  0.0000E+00  0.0000E+00  0.0000E+00  0.0000E+00  0.0000E+00
    -20.973  0.0000E+00  0.0000E+00  0.0000E+00  0.0000E+00  0.0000E+00  0.0000E+00  0.0000E+00  0.0000E+00  0.0000E+00
    -20.856  0.0000E+00  0.0000E+00  0.0000E+00  0.0000E+00  0.0000E+00  0.0000E+00  0.0000E+00  0.0000E+00  0.0000E+00
    -20.740  0.0000E+00  0.0000E+00  0.0000E+00  0.0000E+00  0.0000E+00  0.0000E+00  0.0000E+00  0.0000E+00  0.0000E+00
    -20.623  0.0000E+00  0.0000E+00  0.0000E+00  0.0000E+00  0.0000E+00  0.0000E+00  0.0000E+00  0.0000E+00  0.0000E+00
    -20.507  0.0000E+00  0.0000E+00  0.0000E+00  0.0000E+00  0.0000E+00  0.0000E+00  0.0000E+00  0.0000E+00  0.0000E+00
    -20.390  0.0000E+00  0.0000E+00  0.0000E+00  0.0000E+00  0.0000E+00  0.0000E+00  0.0000E+00  0.0000E+00  0.0000E+00
    -20.274  0.0000E+00  0.0000E+00  0.0000E+00  0.0000E+00  0.0000E+00  0.0000E+00  0.0000E+00  0.0000E+00  0.0000E+00
    -20.158  0.0000E+00  0.0000E+00  0.0000E+00  0.0000E+00  0.0000E+00  0.0000E+00  0.0000E+00  0.0000E+00  0.0000E+00
    -20.041  0.0000E+00  0.0000E+00  0.0000E+00  0.0000E+00  0.0000E+00  0.0000E+00  0.0000E+00  0.0000E+00  0.0000E+00
    -19.925  0.0000E+00  0.0000E+00  0.0000E+00  0.0000E+00  0.0000E+00  0.0000E+00  0.0000E+00  0.0000E+00  0.0000E+00
    -19.808  0.0000E+00  0.0000E+00  0.0000E+00  0.0000E+00  0.0000E+00  0.0000E+00  0.0000E+00  0.0000E+00  0.0000E+00
    -19.692  0.0000E+00  0.0000E+00  0.0000E+00  0.0000E+00  0.0000E+00  0.0000E+00  0.0000E+00  0.0000E+00  0.0000E+00
    -19.575  0.0000E+00  0.0000E+00  0.0000E+00  0.0000E+00  0.0000E+00  0.0000E+00  0.0000E+00  0.0000E+00  0.0000E+00
    -19.459  0.0000E+00  0.0000E+00  0.0000E+00  0.0000E+00  0.0000E+00  0.0000E+00  0.0000E+00  0.0000E+00  0.0000E+00
    -19.342  0.0000E+00  0.0000E+00  0.0000E+00  0.0000E+00  0.0000E+00  0.0000E+00  0.0000E+00  0.0000E+00  0.0000E+00
    -19.226  0.0000E+00  0.0000E+00  0.0000E+00  0.0000E+00  0.0000E+00  0.0000E+00  0.0000E+00  0.0000E+00  0.0000E+00
    -19.109  0.0000E+00  0.0000E+00  0.0000E+00  0.0000E+00  0.0000E+00  0.0000E+00  0.0000E+00  0.0000E+00  0.0000E+00
    -18.993  0.0000E+00  0.0000E+00  0.0000E+00  0.0000E+00  0.0000E+00  0.0000E+00  0.0000E+00  0.0000E+00  0.0000E+00
    -18.877  0.0000E+00  0.0000E+00  0.0000E+00  0.0000E+00  0.0000E+00  0.0000E+00  0.0000E+00  0.0000E+00  0.0000E+00
    -18.760  0.0000E+00  0.0000E+00  0.0000E+00  0.0000E+00  0.0000E+00  0.0000E+00  0.0000E+00  0.0000E+00  0.0000E+00
    -18.644  0.0000E+00  0.0000E+00  0.0000E+00  0.0000E+00  0.0000E+00  0.0000E+00  0.0000E+00  0.0000E+00  0.0000E+00
    -18.527  0.0000E+00  0.0000E+00  0.0000E+00  0.0000E+00  0.0000E+00  0.0000E+00  0.0000E+00  0.0000E+00  0.0000E+00
    -18.411  0.0000E+00  0.0000E+00  0.0000E+00  0.0000E+00  0.0000E+00  0.0000E+00  0.0000E+00  0.0000E+00  0.0000E+00
    -18.294  0.0000E+00  0.0000E+00  0.0000E+00  0.0000E+00  0.0000E+00  0.0000E+00  0.0000E+00  0.0000E+00  0.0000E+00
    -18.178  0.0000E+00  0.0000E+00  0.0000E+00  0.0000E+00  0.0000E+00  0.0000E+00  0.0000E+00  0.0000E+00  0.0000E+00
    -18.061  0.0000E+00  0.0000E+00  0.0000E+00  0.0000E+00  0.0000E+00  0.0000E+00  0.0000E+00  0.0000E+00  0.0000E+00
    -17.945  0.0000E+00  0.0000E+00  0.0000E+00  0.0000E+00  0.0000E+00  0.0000E+00  0.0000E+00  0.0000E+00  0.0000E+00
    -17.828  0.0000E+00  0.0000E+00  0.0000E+00  0.0000E+00  0.0000E+00  0.0000E+00  0.0000E+00  0.0000E+00  0.0000E+00
    -17.712  0.0000E+00  0.0000E+00  0.0000E+00  0.0000E+00  0.0000E+00  0.0000E+00  0.0000E+00  0.0000E+00  0.0000E+00
    -17.596  0.0000E+00  0.0000E+00  0.0000E+00  0.0000E+00  0.0000E+00  0.0000E+00  0.0000E+00  0.0000E+00  0.0000E+00
    -17.479  0.0000E+00  0.0000E+00  0.0000E+00  0.0000E+00  0.0000E+00  0.0000E+00  0.0000E+00  0.0000E+00  0.0000E+00
    -17.363  0.0000E+00  0.0000E+00  0.0000E+00  0.0000E+00  0.0000E+00  0.0000E+00  0.0000E+00  0.0000E+00  0.0000E+00
    -17.246  0.0000E+00  0.0000E+00  0.0000E+00  0.0000E+00  0.0000E+00  0.0000E+00  0.0000E+00  0.0000E+00  0.0000E+00
    -17.130  0.0000E+00  0.0000E+00  0.0000E+00  0.0000E+00  0.0000E+00  0.0000E+00  0.0000E+00  0.0000E+00  0.0000E+00
    -17.013  0.0000E+00  0.0000E+00  0.0000E+00  0.0000E+00  0.0000E+00  0.0000E+00  0.0000E+00  0.0000E+00  0.0000E+00
    -16.897  0.0000E+00  0.0000E+00  0.0000E+00  0.0000E+00  0.0000E+00  0.0000E+00  0.0000E+00  0.0000E+00  0.0000E+00
    -16.780  0.0000E+00  0.0000E+00  0.0000E+00  0.0000E+00  0.0000E+00  0.0000E+00  0.0000E+00  0.0000E+00  0.0000E+00
    -16.664  0.0000E+00  0.0000E+00  0.0000E+00  0.0000E+00  0.0000E+00  0.0000E+00  0.0000E+00  0.0000E+00  0.0000E+00
    -16.547  0.0000E+00  0.0000E+00  0.0000E+00  0.0000E+00  0.0000E+00  0.0000E+00  0.0000E+00  0.0000E+00  0.0000E+00
    -16.431  0.0000E+00  0.0000E+00  0.0000E+00  0.0000E+00  0.0000E+00  0.0000E+00  0.0000E+00  0.0000E+00  0.0000E+00
    -16.315  0.0000E+00  0.0000E+00  0.0000E+00  0.0000E+00  0.0000E+00  0.0000E+00  0.0000E+00  0.0000E+00  0.0000E+00
    -16.198  0.0000E+00  0.0000E+00  0.0000E+00  0.0000E+00  0.0000E+00  0.0000E+00  0.0000E+00  0.0000E+00  0.0000E+00
    -16.082  0.0000E+00  0.0000E+00  0.0000E+00  0.0000E+00  0.0000E+00  0.0000E+00  0.0000E+00  0.0000E+00  0.0000E+00
    -15.965  0.0000E+00  0.0000E+00  0.0000E+00  0.0000E+00  0.0000E+00  0.0000E+00  0.0000E+00  0.0000E+00  0.0000E+00
    -15.849  0.0000E+00  0.0000E+00  0.0000E+00  0.0000E+00  0.0000E+00  0.0000E+00  0.0000E+00  0.0000E+00  0.0000E+00
    -15.732  0.0000E+00  0.0000E+00  0.0000E+00  0.0000E+00  0.0000E+00  0.0000E+00  0.0000E+00  0.0000E+00  0.0000E+00
    -15.616  0.0000E+00  0.0000E+00  0.0000E+00  0.0000E+00  0.0000E+00  0.0000E+00  0.0000E+00  0.0000E+00  0.0000E+00
    -15.499  0.0000E+00  0.0000E+00  0.0000E+00  0.0000E+00  0.0000E+00  0.0000E+00  0.0000E+00  0.0000E+00  0.0000E+00
    -15.383  0.0000E+00  0.0000E+00  0.0000E+00  0.0000E+00  0.0000E+00  0.0000E+00  0.0000E+00  0.0000E+00  0.0000E+00
    -15.266  0.0000E+00  0.0000E+00  0.0000E+00  0.0000E+00  0.0000E+00  0.0000E+00  0.0000E+00  0.0000E+00  0.0000E+00
    -15.150  0.0000E+00  0.0000E+00  0.0000E+00  0.0000E+00  0.0000E+00  0.0000E+00  0.0000E+00  0.0000E+00  0.0000E+00
    -15.034  0.0000E+00  0.0000E+00  0.0000E+00  0.0000E+00  0.0000E+00  0.0000E+00  0.0000E+00  0.0000E+00  0.0000E+00
    -14.917  0.4810E-15  0.1008E-35  0.1283E-14  0.3178E-35  0.0000E+00  0.0000E+00  0.0000E+00  0.0000E+00  0.0000E+00
    -14.801  0.3292E-12  0.6897E-33  0.8782E-12  0.2175E-32  0.0000E+00  0.0000E+00  0.0000E+00  0.0000E+00  0.0000E+00
    -14.684  0.1099E-09  0.2303E-30  0.2933E-09  0.7263E-30  0.0000E+00  0.0000E+00  0.0000E+00  0.0000E+00  0.0000E+00
    -14.568  0.1887E-07  0.3955E-28  0.5035E-07  0.1247E-27  0.0000E+00  0.0000E+00  0.0000E+00  0.0000E+00  0.0000E+00
    -14.451  0.1670E-05  0.3500E-26  0.4456E-05  0.1103E-25  0.0000E+00  0.0000E+00  0.0000E+00  0.0000E+00  0.0000E+00
    -14.335  0.7641E-04  0.1601E-24  0.2039E-03  0.5049E-24  0.0000E+00  0.0000E+00  0.0000E+00  0.0000E+00  0.0000E+00
    -14.218  0.1814E-02  0.3800E-23  0.4839E-02  0.1198E-22  0.0000E+00  0.0000E+00  0.0000E+00  0.0000E+00  0.0000E+00
    -14.102  0.2242E-01  0.4697E-22  0.5981E-01  0.1481E-21  0.0000E+00  0.0000E+00  0.0000E+00  0.0000E+00  0.0000E+00
    -13.985  0.1449E+00  0.3035E-21  0.3865E+00  0.9571E-21  0.0000E+00  0.0000E+00  0.0000E+00  0.0000E+00  0.0000E+00
    -13.869  0.4911E+00  0.1029E-20  0.1310E+01  0.3245E-20  0.0000E+00  0.0000E+00  0.0000E+00  0.0000E+00  0.0000E+00
    -13.753  0.8760E+00  0.1836E-20  0.2337E+01  0.5788E-20  0.0000E+00  0.0000E+00  0.0000E+00  0.0000E+00  0.0000E+00
    -13.636  0.8231E+00  0.1725E-20  0.2196E+01  0.5438E-20  0.0000E+00  0.0000E+00  0.0000E+00  0.0000E+00  0.0000E+00
    -13.520  0.4074E+00  0.8536E-21  0.1087E+01  0.2692E-20  0.0000E+00  0.0000E+00  0.0000E+00  0.0000E+00  0.0000E+00
    -13.403  0.1060E+00  0.2222E-21  0.2829E+00  0.7006E-21  0.0000E+00  0.0000E+00  0.0000E+00  0.0000E+00  0.0000E+00
    -13.287  0.1447E-01  0.3032E-22  0.3860E-01  0.9560E-22  0.0000E+00  0.0000E+00  0.0000E+00  0.0000E+00  0.0000E+00
    -13.170  0.1031E-02  0.2161E-23  0.2752E-02  0.6815E-23  0.0000E+00  0.0000E+00  0.0000E+00  0.0000E+00  0.0000E+00
    -13.054  0.3827E-04  0.8018E-25  0.1021E-03  0.2528E-24  0.0000E+00  0.0000E+00  0.0000E+00  0.0000E+00  0.0000E+00
    -12.937  0.7359E-06  0.1542E-26  0.1964E-05  0.4863E-26  0.0000E+00  0.0000E+00  0.0000E+00  0.0000E+00  0.0000E+00
    -12.821  0.7313E-08  0.1532E-28  0.1951E-07  0.4832E-28  0.0000E+00  0.0000E+00  0.0000E+00  0.0000E+00  0.0000E+00