    2    2    1    1
  0.2560000E+03  0.8000000E-09  0.8000000E-09  0.8000000E-09  0.5000000E-15
   1.0000000000000000E-004
  CAR 
 CO dimer in a box                       
     10      1     12

  0.0000000E+00  0.0000000E+00  0.0000000E+00  0.1000000E+01
    1      -28.987785   1.000000
    2      -13.763876   1.000000
    3      -11.465417   1.000000
    4      -11.465417   1.000000
    5       -8.764869   1.000000
    6       -1.850122   0.000000
    7       -1.850122   0.000000
    8       -0.243020   0.000000
    9        1.713375   0.000000
   10        1.881913   0.000000
   11        1.881914   0.000000
   12        1.948482   0.000000
