PROCAR lm decomposed
# of k-points:    1         # of bands:   12         # of ions:    2

 k-point     1 :    0.00000000 0.00000000 0.00000000     weight = 1.00000000

band     1 # energy  -28.98778510 # occ.  2.00000000

ion      s     py     pz     px    dxy    dyz    dz2    dxz  x2-y2    tot
    1  0.658  0.000  0.099  0.000  0.000  0.000  0.000  0.000  0.000  0.757
    2  0.162  0.000  0.126  0.000  0.000  0.000  0.000  0.000  0.000  0.288
tot    0.820  0.000  0.225  0.000  0.000  0.000  0.000  0.000  0.000  1.045

band     2 # energy  -13.76387623 # occ.  2.00000000

ion      s     py     pz     px    dxy    dyz    dz2    dxz  x2-y2    tot
    1  0.168  0.000  0.449  0.000  0.000  0.000  0.000  0.000  0.000  0.617
    2  0.187  0.000  0.018  0.000  0.000  0.000  0.000  0.000  0.000  0.205
tot    0.355  0.000  0.467  0.000  0.000  0.000  0.000  0.000  0.000  0.822

band     3 # energy  -11.46541684 # occ.  2.00000000

ion      s     py     pz     px    dxy    dyz    dz2    dxz  x2-y2    tot
    1  0.000  0.087  0.000  0.459  0.000  0.000  0.000  0.000  0.000  0.546
    2  0.000  0.025  0.000  0.132  0.000  0.000  0.000  0.000  0.000  0.157
tot    0.000  0.112  0.000  0.591  0.000  0.000  0.000  0.000  0.000  0.703

band     4 # energy  -11.46541684 # occ.  2.00000000

ion      s     py     pz     px    dxy    dyz    dz2    dxz  x2-y2    tot
    1  0.000  0.459  0.000  0.087  0.000  0.000  0.000  0.000  0.000  0.546
    2  0.000  0.132  0.000  0.025  0.000  0.000  0.000  0.000  0.000  0.157
tot    0.000  0.591  0.000  0.112  0.000  0.000  0.000  0.000  0.000  0.703

band     5 # energy   -8.76486901 # occ.  2.00000000

ion      s     py     pz     px    dxy    dyz    dz2    dxz  x2-y2    tot
    1  0.001  0.000  0.135  0.000  0.000  0.000  0.000  0.000  0.000  0.136
    2  0.172  0.000  0.261  0.000  0.000  0.000  0.000  0.000  0.000  0.433
tot    0.173  0.000  0.396  0.000  0.000  0.000  0.000  0.000  0.000  0.569

band     6 # energy   -1.85012239 # occ.  0.00000000

ion      s     py     pz     px    dxy    dyz    dz2    dxz  x2-y2    tot
    1  0.000  0.012  0.000  0.193  0.000  0.000  0.000  0.000  0.000  0.205
    2  0.000  0.018  0.000  0.295  0.000  0.000  0.000  0.000  0.000  0.313
tot    0.000  0.030  0.000  0.488  0.000  0.000  0.000  0.000  0.000  0.518

band     7 # energy   -1.85012239 # occ.  0.00000000

ion      s     py     pz     px    dxy    dyz    dz2    dxz  x2-y2    tot
    1  0.000  0.193  0.000  0.012  0.000  0.000  0.000  0.000  0.000  0.205
    2  0.000  0.295  0.000  0.018  0.000  0.000  0.000  0.000  0.000  0.313
tot    0.000  0.488  0.000  0.030  0.000  0.000  0.000  0.000  0.000  0.518

band     8 # energy   -0.24301959 # occ.  0.00000000

ion      s     py     pz     px    dxy    dyz    dz2    dxz  x2-y2    tot
    1  0.004  0.000  0.004  0.000  0.000  0.000  0.000  0.000  0.000  0.007
    2  0.008  0.000  0.008  0.000  0.000  0.000  0.000  0.000  0.000  0.016
tot    0.012  0.000  0.012  0.000  0.000  0.000  0.000  0.000  0.000  0.024

band     9 # energy    1.71337523 # occ.  0.00000000

ion      s     py     pz     px    dxy    dyz    dz2    dxz  x2-y2    tot
    1  0.009  0.000  0.000  0.000  0.000  0.000  0.000  0.000  0.000  0.009
    2  0.001  0.000  0.000  0.000  0.000  0.000  0.000  0.000  0.000  0.001
tot    0.010  0.000  0.000  0.000  0.000  0.000  0.000  0.000  0.000  0.010

band    10 # energy    1.88191321 # occ.  0.00000000

ion      s     py     pz     px    dxy    dyz    dz2    dxz  x2-y2    tot
    1  0.000  0.001  0.000  0.000  0.000  0.000  0.000  0.000  0.000  0.001
    2  0.000  0.027  0.000  0.006  0.000  0.000  0.000  0.000  0.000  0.033
tot    0.000  0.028  0.000  0.006  0.000  0.000  0.000  0.000  0.000  0.034

band    11 # energy    1.88191401 # occ.  0.00000000

ion      s     py     pz     px    dxy    dyz    dz2    dxz  x2-y2    tot
    1  0.000  0.000  0.000  0.001  0.000  0.000  0.000  0.000  0.000  0.001
    2  0.000  0.006  0.000  0.027  0.000  0.000  0.000  0.000  0.000  0.033
tot    0.000  0.006  0.000  0.028  0.000  0.000  0.000  0.000  0.000  0.034

band    12 # energy    1.94848177 # occ.  0.00000000

ion      s     py     pz     px    dxy    dyz    dz2    dxz  x2-y2    tot
    1  0.005  0.000  0.003  0.000  0.000  0.000  0.000  0.000  0.000  0.008
    2  0.004  0.000  0.000  0.000  0.000  0.000  0.000  0.000  0.000  0.004
tot    0.009  0.000  0.003  0.000  0.000  0.000  0.000  0.000  0.000  0.012

