 running on    4 total cores
 distrk:  each k-point on    4 cores,    1 groups
 distr:  one band on    1 cores,    4 groups
 using from now: INCAR     
 vasp.5.4.4.18Apr17-6-g9f103f2a35 (build Dec 28 2021 15:39:15) complex           
 POSCAR found :  2 types and       2 ions
 scaLAPACK will be used
 LDA part: xc-table for Pade appr. of Perdew
 POSCAR, INCAR and KPOINTS ok, starting setup
 FFT: planning ...
 WAVECAR not read
 entering main loop
       N       E                     dE             d eps       ncg     rms          rms(c)
DAV:   1     0.778499629222E+02    0.77850E+02   -0.21472E+03    24   0.382E+02
DAV:   2    -0.179701898785E+01   -0.79647E+02   -0.78913E+02    40   0.123E+02
DAV:   3    -0.155081142018E+02   -0.13711E+02   -0.13705E+02    36   0.608E+01
DAV:   4    -0.155947020717E+02   -0.86588E-01   -0.86585E-01    24   0.551E+00
DAV:   5    -0.155953717727E+02   -0.66970E-03   -0.66969E-03    40   0.478E-01    0.618E+00
DAV:   6    -0.149584798884E+02    0.63689E+00   -0.34164E+00    24   0.994E+00    0.319E+00
DAV:   7    -0.148304298170E+02    0.12805E+00   -0.60689E-01    36   0.372E+00    0.163E+00
DAV:   8    -0.147933579922E+02    0.37072E-01   -0.12958E-01    24   0.225E+00    0.378E-01
DAV:   9    -0.147925595426E+02    0.79845E-03   -0.67042E-03    28   0.495E-01    0.987E-02
DAV:  10    -0.147934793250E+02   -0.91978E-03   -0.11380E-03    24   0.186E-01    0.340E-02
DAV:  11    -0.147956963562E+02   -0.22170E-02   -0.51889E-04    28   0.100E-01    0.187E-02
DAV:  12    -0.147963164936E+02   -0.62014E-03   -0.57466E-05    32   0.396E-02    0.105E-02
DAV:  13    -0.147971678264E+02   -0.85133E-03   -0.10429E-04    24   0.413E-02    0.367E-03
DAV:  14    -0.147973041997E+02   -0.13637E-03   -0.75436E-06    28   0.122E-02    0.217E-03
DAV:  15    -0.147973934800E+02   -0.89280E-04   -0.71665E-06    24   0.953E-03
   1 F= -.14797393E+02 E0= -.14797393E+02  d E =-.160119E-10
 writing wavefunctions
