<?xml version="1.0" encoding="ISO-8859-1"?>
<modeling>
 <generator>
  <i name="program" type="string">vasp </i>
  <i name="version" type="string">5.4.4.18Apr17-6-g9f103f2a35  </i>
  <i name="subversion" type="string">(build Dec 28 2021 15:39:15) complex            parallel </i>
  <i name="platform" type="string">LinuxGNU </i>
  <i name="date" type="string">2021 12 31 </i>
  <i name="time" type="string">11:01:32 </i>
 </generator>
 <incar>
  <i type="string" name="SYSTEM"> CO dimer in a box</i>
  <i type="string" name="PREC">normal</i>
  <i type="int" name="ISMEAR">     0</i>
  <i type="int" name="LORBIT">    11</i>
  <v type="int" name="KPOINT_BSE">    -1     0     0     0</v>
 </incar>
 <structure name="primitive_cell" >
  <crystal>
   <varray name="basis" >
    <v>       8.00000000       0.00000000       0.00000000 </v>
    <v>       0.00000000       8.00000000       0.00000000 </v>
    <v>       0.00000000       0.00000000       8.00000000 </v>
   </varray>
   <i name="volume">    512.00000000 </i>
   <varray name="rec_basis" >
    <v>       0.12500000       0.00000000       0.00000000 </v>
    <v>       0.00000000       0.12500000       0.00000000 </v>
    <v>       0.00000000       0.00000000       0.12500000 </v>
   </varray>
  </crystal>
  <varray name="positions" >
   <v>       0.00000000       0.00000000       0.00000000 </v>
   <v>       0.00000000       0.00000000       0.14287500 </v>
  </varray>
 </structure>
 <varray name="primitive_index" >
  <v type="int" >        1 </v>
  <v type="int" >        2 </v>
 </varray>
 <kpoints>
  <varray name="kpointlist" >
   <v>       0.00000000       0.00000000       0.00000000 </v>
  </varray>
  <varray name="weights" >
   <v>       1.00000000 </v>
  </varray>
 </kpoints>
 <parameters>
  <separator name="general" >
   <i type="string" name="SYSTEM">CO dimer in a box</i>
   <i type="logical" name="LCOMPAT"> F  </i>
  </separator>
  <separator name="electronic" >
   <i type="string" name="PREC">normal</i>
   <i name="ENMAX">    400.00000000</i>
   <i name="ENAUG">    644.87300000</i>
   <i name="EDIFF">      0.00010000</i>
   <i type="int" name="IALGO">    38</i>
   <i type="int" name="IWAVPR">    10</i>
   <i type="int" name="NBANDS">    12</i>
   <i name="NELECT">     10.00000000</i>
   <i type="int" name="TURBO">     0</i>
   <i type="int" name="IRESTART">     0</i>
   <i type="int" name="NREBOOT">     0</i>
   <i type="int" name="NMIN">     0</i>
   <i name="EREF">      0.00000000</i>
   <separator name="electronic smearing" >
    <i type="int" name="ISMEAR">     0</i>
    <i name="SIGMA">      0.20000000</i>
    <i name="KSPACING">      0.50000000</i>
    <i type="logical" name="KGAMMA"> T  </i>
   </separator>
   <separator name="electronic projectors" >
    <i type="logical" name="LREAL"> F  </i>
    <v name="ROPT">      0.00000000      0.00000000</v>
    <i type="int" name="LMAXPAW">  -100</i>
    <i type="int" name="LMAXMIX">     2</i>
    <i type="logical" name="NLSPLINE"> F  </i>
   </separator>
   <separator name="electronic startup" >
    <i type="int" name="ISTART">     0</i>
    <i type="int" name="ICHARG">     2</i>
    <i type="int" name="INIWAV">     1</i>
   </separator>
   <separator name="electronic spin" >
    <i type="int" name="ISPIN">     1</i>
    <i type="logical" name="LNONCOLLINEAR"> F  </i>
    <v name="MAGMOM">      1.00000000      1.00000000</v>
    <i name="NUPDOWN">     -1.00000000</i>
    <i type="logical" name="LSORBIT"> F  </i>
    <v name="SAXIS">      0.00000000      0.00000000      1.00000000</v>
    <i type="logical" name="LSPIRAL"> F  </i>
    <v name="QSPIRAL">      0.00000000      0.00000000      0.00000000</v>
    <i type="logical" name="LZEROZ"> F  </i>
   </separator>
   <separator name="electronic exchange-correlation" >
    <i type="logical" name="LASPH"> F  </i>
    <i type="logical" name="LMETAGGA"> F  </i>
   </separator>
   <separator name="electronic convergence" >
    <i type="int" name="NELM">    60</i>
    <i type="int" name="NELMDL">    -5</i>
    <i type="int" name="NELMIN">     2</i>
    <i name="ENINI">    400.00000000</i>
    <separator name="electronic convergence detail" >
     <i type="logical" name="LDIAG"> T  </i>
     <i type="logical" name="LSUBROT"> F  </i>
     <i name="WEIMIN">      0.00000000</i>
     <i name="EBREAK">      0.00000208</i>
     <i name="DEPER">      0.30000000</i>
     <i type="int" name="NRMM">     4</i>
     <i name="TIME">      0.40000000</i>
    </separator>
   </separator>
   <separator name="electronic mixer" >
    <i name="AMIX">      0.40000000</i>
    <i name="BMIX">      1.00000000</i>
    <i name="AMIN">      0.10000000</i>
    <i name="AMIX_MAG">      1.60000000</i>
    <i name="BMIX_MAG">      1.00000000</i>
    <separator name="electronic mixer details" >
     <i type="int" name="IMIX">     4</i>
     <i type="logical" name="MIXFIRST"> F  </i>
     <i type="int" name="MAXMIX">   -45</i>
     <i name="WC">    100.00000000</i>
     <i type="int" name="INIMIX">     1</i>
     <i type="int" name="MIXPRE">     1</i>
     <i type="int" name="MREMOVE">     5</i>
    </separator>
   </separator>
   <separator name="electronic dipolcorrection" >
    <i type="logical" name="LDIPOL"> F  </i>
    <i type="logical" name="LMONO"> F  </i>
    <i type="int" name="IDIPOL">     0</i>
    <i name="EPSILON">      1.00000000</i>
    <v name="DIPOL">   -100.00000000   -100.00000000   -100.00000000</v>
    <i name="EFIELD">      0.00000000</i>
   </separator>
  </separator>
  <separator name="grids" >
   <i type="int" name="NGX">    40</i>
   <i type="int" name="NGY">    40</i>
   <i type="int" name="NGZ">    40</i>
   <i type="int" name="NGXF">    80</i>
   <i type="int" name="NGYF">    80</i>
   <i type="int" name="NGZF">    80</i>
   <i type="logical" name="ADDGRID"> F  </i>
  </separator>
  <separator name="ionic" >
   <i type="int" name="NSW">     0</i>
   <i type="int" name="IBRION">    -1</i>
   <i type="int" name="MDALGO">     0</i>
   <i type="int" name="ISIF">     2</i>
   <i name="PSTRESS">      0.00000000</i>
   <i name="EDIFFG">      0.00100000</i>
   <i type="int" name="NFREE">     0</i>
   <i name="POTIM">      0.50000000</i>
   <i name="SMASS">     -3.00000000</i>
   <i name="SCALEE">      1.00000000</i>
  </separator>
  <separator name="ionic md" >
   <i name="TEBEG">      0.00010000</i>
   <i name="TEEND">      0.00010000</i>
   <i type="int" name="NBLOCK">     1</i>
   <i type="int" name="KBLOCK">     1</i>
   <i type="int" name="NPACO">   256</i>
   <i name="APACO">     16.00000000</i>
  </separator>
  <separator name="symmetry" >
   <i type="int" name="ISYM">     2</i>
   <i name="SYMPREC">      0.00001000</i>
  </separator>
  <separator name="dos" >
   <i type="int" name="LORBIT">    11</i>
   <v name="RWIGS">     -1.00000000     -1.00000000</v>
   <i type="int" name="NEDOS">   301</i>
   <i name="EMIN">     10.00000000</i>
   <i name="EMAX">    -10.00000000</i>
   <i name="EFERMI">      0.00000000</i>
  </separator>
  <separator name="writing" >
   <i type="int" name="NWRITE">     2</i>
   <i type="logical" name="LWAVE"> T  </i>
   <i type="logical" name="LDOWNSAMPLE"> F  </i>
   <i type="logical" name="LCHARG"> T  </i>
   <i type="logical" name="LPARD"> F  </i>
   <i type="logical" name="LVTOT"> F  </i>
   <i type="logical" name="LVHAR"> F  </i>
   <i type="logical" name="LELF"> F  </i>
   <i type="logical" name="LOPTICS"> F  </i>
   <v name="STM">      0.00000000      0.00000000      0.00000000      0.00000000      0.00000000      0.00000000      0.00000000</v>
  </separator>
  <separator name="performance" >
   <i type="int" name="NPAR">     4</i>
   <i type="int" name="NSIM">     4</i>
   <i type="int" name="NBLK">    -1</i>
   <i type="logical" name="LPLANE"> T  </i>
   <i type="logical" name="LSCALAPACK"> T  </i>
   <i type="logical" name="LSCAAWARE"> F  </i>
   <i type="logical" name="LSCALU"> F  </i>
   <i type="logical" name="LASYNC"> F  </i>
   <i type="logical" name="LORBITALREAL"> F  </i>
  </separator>
  <separator name="miscellaneous" >
   <i type="int" name="IDIOT">     3</i>
   <i type="int" name="ISPECIAL">     0</i>
   <i type="logical" name="LMUSIC"> F  </i>
   <v name="POMASS">     16.00000000     12.01100000</v>
   <v name="DARWINR">      0.00000000      0.00000000</v>
   <v name="DARWINV">      1.00000000      1.00000000</v>
   <i type="logical" name="LCORR"> T  </i>
  </separator>
  <i type="logical" name="GGA_COMPAT"> T  </i>
  <i type="logical" name="LBERRY"> F  </i>
  <i type="int" name="ICORELEVEL">     0</i>
  <i type="logical" name="LDAU"> F  </i>
  <i type="int" name="I_CONSTRAINED_M">     0</i>
  <separator name="electronic exchange-correlation" >
   <i type="string" name="GGA">--</i>
   <i type="int" name="VOSKOWN">     0</i>
   <i type="logical" name="LHFCALC"> F  </i>
   <i type="string" name="PRECFOCK"></i>
   <i type="logical" name="LSYMGRAD"> F  </i>
   <i type="logical" name="LHFONE"> F  </i>
   <i type="logical" name="LRHFCALC"> F  </i>
   <i type="logical" name="LTHOMAS"> F  </i>
   <i type="logical" name="LMODELHF"> F  </i>
   <i name="ENCUT4O">     -1.00000000</i>
   <i type="int" name="EXXOEP">     0</i>
   <i type="int" name="FOURORBIT">     0</i>
   <i name="AEXX">      0.00000000</i>
   <i name="HFALPHA">      0.00000000</i>
   <i name="MCALPHA">      0.00000000</i>
   <i name="ALDAX">      1.00000000</i>
   <i name="AGGAX">      1.00000000</i>
   <i name="ALDAC">      1.00000000</i>
   <i name="AGGAC">      1.00000000</i>
   <i type="int" name="NKREDX">     1</i>
   <i type="int" name="NKREDY">     1</i>
   <i type="int" name="NKREDZ">     1</i>
   <i type="logical" name="SHIFTRED"> F  </i>
   <i type="logical" name="ODDONLY"> F  </i>
   <i type="logical" name="EVENONLY"> F  </i>
   <i type="int" name="LMAXFOCK">     0</i>
   <i type="int" name="NMAXFOCKAE">     0</i>
   <i type="logical" name="LFOCKAEDFT"> F  </i>
   <i name="HFSCREEN">      0.00000000</i>
   <i name="HFSCREENC">      0.00000000</i>
   <i type="int" name="NBANDSGWLOW">     0</i>
  </separator>
  <separator name="vdW DFT" >
   <i type="logical" name="LUSE_VDW"> F  </i>
   <i name="Zab_VDW">     -0.84910000</i>
   <i name="PARAM1">      0.12340000</i>
   <i name="PARAM2">      1.00000000</i>
   <i name="PARAM3">      0.00000000</i>
  </separator>
  <separator name="model GW" >
   <i type="int" name="MODEL_GW">     0</i>
   <i name="MODEL_EPS0">    153.60000000</i>
   <i name="MODEL_ALPHA">      1.00000000</i>
  </separator>
  <separator name="linear response parameters" >
   <i type="logical" name="LEPSILON"> F  </i>
   <i type="logical" name="LRPA"> F  </i>
   <i type="logical" name="LNABLA"> F  </i>
   <i type="logical" name="LVEL"> F  </i>
   <i type="int" name="KINTER">     0</i>
   <i name="CSHIFT">      0.10000000</i>
   <i name="OMEGAMAX">     -1.00000000</i>
   <i name="DEG_THRESHOLD">      0.00200000</i>
   <i name="RTIME">     -0.10000000</i>
   <i name="WPLASMAI">      0.00000000</i>
   <v name="DFIELD">      0.00000000      0.00000000      0.00000000</v>
   <v name="WPLASMA">      0.00000000      0.00000000      0.00000000      0.00000000      0.00000000      0.00000000      0.00000000      0.00000000      0.00000000</v>
  </separator>
  <separator name="orbital magnetization" >
   <i type="logical" name="NUCIND"> F  </i>
   <v name="MAGPOS">      0.00000000      0.00000000      0.00000000</v>
   <i type="logical" name="LNICSALL"> T  </i>
   <i type="logical" name="ORBITALMAG"> F  </i>
   <i type="logical" name="LMAGBLOCH"> F  </i>
   <i type="logical" name="LCHIMAG"> F  </i>
   <i type="logical" name="LGAUGE"> T  </i>
   <i type="int" name="MAGATOM">     0</i>
   <v name="MAGDIPOL">      0.00000000      0.00000000      0.00000000</v>
   <v name="AVECCONST">      0.00000000      0.00000000      0.00000000</v>
  </separator>
  <separator name="response functions" >
   <i type="logical" name="LADDER"> F  </i>
   <i type="logical" name="LRPAFORCE"> F  </i>
   <i type="logical" name="LFXC"> F  </i>
   <i type="logical" name="LHARTREE"> T  </i>
   <i type="int" name="IBSE">     0</i>
   <v type="int" name="KPOINT">    -1     0     0     0</v>
   <i type="logical" name="LTCTE"> F  </i>
   <i type="logical" name="LTETE"> F  </i>
   <i type="logical" name="LTRIPLET"> F  </i>
   <i type="logical" name="LFXCEPS"> F  </i>
   <i type="logical" name="LFXHEG"> F  </i>
   <i type="int" name="NATURALO">     2</i>
   <i type="logical" name="L2ORDER"> F  </i>
   <i type="logical" name="LMP2LT"> F  </i>
   <i type="logical" name="LUSEW"> F  </i>
   <i name="ENCUTGW">     -2.00000000</i>
   <i name="ENCUTGWSOFT">     -2.00000000</i>
   <i name="ENCUTLF">     -1.00000000</i>
   <i type="int" name="LMAXMP2">    -1</i>
   <i name="SCISSOR">      0.00000000</i>
   <i type="int" name="NOMEGA">     0</i>
   <i type="int" name="NOMEGAR">     0</i>
   <i type="int" name="NBANDSGW">    -1</i>
   <i type="int" name="NBANDSO">    -1</i>
   <i type="int" name="NBANDSV">    -1</i>
   <i type="int" name="NELM">     1</i>
   <i type="int" name="NELMHF">     1</i>
   <i type="int" name="DIM">     3</i>
   <i type="int" name="ANTIRES">     0</i>
   <i name="OMEGAMAX">    -30.00000000</i>
   <i name="OMEGAMIN">    -30.00000000</i>
   <i name="OMEGATL">   -200.00000000</i>
   <i type="int" name="OMEGAGRID">   140</i>
   <i name="CSHIFT">     -0.10000000</i>
   <i type="logical" name="SELFENERGY"> F  </i>
   <i type="logical" name="LSPECTRAL"> F  </i>
   <i type="logical" name="LSPECTRALGW"> F  </i>
   <i type="logical" name="LSINGLES"> F  </i>
   <i type="logical" name="LFERMIGW"> F  </i>
   <i type="logical" name="ODDONLYGW"> F  </i>
   <i type="logical" name="EVENONLYGW"> F  </i>
   <i type="int" name="NKREDLFX">     1</i>
   <i type="int" name="NKREDLFY">     1</i>
   <i type="int" name="NKREDLFZ">     1</i>
   <i type="int" name="MAXMEM">  2800</i>
   <i type="int" name="TELESCOPE">     0</i>
   <i type="int" name="TAUPAR">     1</i>
   <i type="int" name="OMEGAPAR">    -1</i>
   <i name="LAMBDA">      1.00000000</i>
  </separator>
  <separator name="External order field" >
   <i name="OFIELD_KAPPA">      0.00000000</i>
   <v name="OFIELD_K">      0.00000000      0.00000000      0.00000000</v>
   <i name="OFIELD_Q6_NEAR">      0.00000000</i>
   <i name="OFIELD_Q6_FAR">      0.00000000</i>
   <i name="OFIELD_A">      0.00000000</i>
  </separator>
 </parameters>
 <atominfo>
  <atoms>       2 </atoms>
  <types>       2 </types>
  <array name="atoms" >
   <dimension dim="1">ion</dimension>
   <field type="string">element</field>
   <field type="int">atomtype</field>
   <set>
    <rc><c>O </c><c>   1</c></rc>
    <rc><c>C </c><c>   2</c></rc>
   </set>
  </array>
  <array name="atomtypes" >
   <dimension dim="1">type</dimension>
   <field type="int">atomspertype</field>
   <field type="string">element</field>
   <field>mass</field>
   <field>valence</field>
   <field type="string">pseudopotential</field>
   <set>
    <rc><c>   1</c><c>O </c><c>     16.00000000</c><c>      6.00000000</c><c> PAW_RPBE O 08Apr2002                   </c></rc>
    <rc><c>   1</c><c>C </c><c>     12.01100000</c><c>      4.00000000</c><c> PAW_RPBE C 08Apr2002                   </c></rc>
   </set>
  </array>
 </atominfo>
 <structure name="initialpos" >
  <crystal>
   <varray name="basis" >
    <v>       8.00000000       0.00000000       0.00000000 </v>
    <v>       0.00000000       8.00000000       0.00000000 </v>
    <v>       0.00000000       0.00000000       8.00000000 </v>
   </varray>
   <i name="volume">    512.00000000 </i>
   <varray name="rec_basis" >
    <v>       0.12500000       0.00000000       0.00000000 </v>
    <v>       0.00000000       0.12500000       0.00000000 </v>
    <v>       0.00000000       0.00000000       0.12500000 </v>
   </varray>
  </crystal>
  <varray name="positions" >
   <v>       0.00000000       0.00000000       0.00000000 </v>
   <v>       0.00000000       0.00000000       0.14287500 </v>
  </varray>
  <varray name="selective"  type="logical" >
   <v type="logical" >  F  F  T </v>
   <v type="logical" >  F  F  T </v>
  </varray>
  <nose>
   <v>      -3.00000000       0.00000000       0.00010000       0.00010000 </v>
  </nose>
 </structure>
 <calculation>
  <scstep>
   <time name="dav">    0.03    0.03</time>
   <time name="total">    0.11    0.11</time>
   <energy>
    <i name="alphaZ">      0.85010715 </i>
    <i name="ewald">     48.90784304 </i>
    <i name="hartreedc">   -512.54826743 </i>
    <i name="XCdc">     39.84835132 </i>
    <i name="pawpsdc">    283.82984571 </i>
    <i name="pawaedc">   -286.83001101 </i>
    <i name="eentropy">     -0.00000038 </i>
    <i name="bandstr">    -75.59832538 </i>
    <i name="atom">    579.39041991 </i>
    <i name="e_fr_energy">     77.84996292 </i>
    <i name="e_wo_entrp">     77.84996330 </i>
    <i name="e_0_energy">     77.84996311 </i>
   </energy>
  </scstep>
  <scstep>
   <time name="dav">    0.05    0.05</time>
   <time name="total">    0.05    0.05</time>
   <energy>
    <i name="e_fr_energy">     -1.79701899 </i>
    <i name="e_wo_entrp">     -1.79701899 </i>
    <i name="e_0_energy">     -1.79701899 </i>
   </energy>
  </scstep>
  <scstep>
   <time name="dav">    0.04    0.04</time>
   <time name="total">    0.04    0.04</time>
   <energy>
    <i name="e_fr_energy">    -15.50811420 </i>
    <i name="e_wo_entrp">    -15.50811420 </i>
    <i name="e_0_energy">    -15.50811420 </i>
   </energy>
  </scstep>
  <scstep>
   <time name="dav">    0.03    0.03</time>
   <time name="total">    0.03    0.03</time>
   <energy>
    <i name="e_fr_energy">    -15.59470207 </i>
    <i name="e_wo_entrp">    -15.59470207 </i>
    <i name="e_0_energy">    -15.59470207 </i>
   </energy>
  </scstep>
  <scstep>
   <time name="dav">    0.05    0.05</time>
   <time name="total">    0.07    0.07</time>
   <energy>
    <i name="e_fr_energy">    -15.59537177 </i>
    <i name="e_wo_entrp">    -15.59537177 </i>
    <i name="e_0_energy">    -15.59537177 </i>
   </energy>
  </scstep>
  <scstep>
   <time name="dav">    0.03    0.03</time>
   <time name="total">    0.11    0.11</time>
   <energy>
    <i name="e_fr_energy">    -14.95847989 </i>
    <i name="e_wo_entrp">    -14.95847989 </i>
    <i name="e_0_energy">    -14.95847989 </i>
   </energy>
  </scstep>
  <scstep>
   <time name="dav">    0.04    0.04</time>
   <time name="total">    0.12    0.12</time>
   <energy>
    <i name="e_fr_energy">    -14.83042982 </i>
    <i name="e_wo_entrp">    -14.83042982 </i>
    <i name="e_0_energy">    -14.83042982 </i>
   </energy>
  </scstep>
  <scstep>
   <time name="dav">    0.03    0.03</time>
   <time name="total">    0.11    0.11</time>
   <energy>
    <i name="e_fr_energy">    -14.79335799 </i>
    <i name="e_wo_entrp">    -14.79335799 </i>
    <i name="e_0_energy">    -14.79335799 </i>
   </energy>
  </scstep>
  <scstep>
   <time name="dav">    0.04    0.04</time>
   <time name="total">    0.11    0.11</time>
   <energy>
    <i name="e_fr_energy">    -14.79255954 </i>
    <i name="e_wo_entrp">    -14.79255954 </i>
    <i name="e_0_energy">    -14.79255954 </i>
   </energy>
  </scstep>
  <scstep>
   <time name="dav">    0.03    0.03</time>
   <time name="total">    0.11    0.11</time>
   <energy>
    <i name="e_fr_energy">    -14.79347933 </i>
    <i name="e_wo_entrp">    -14.79347933 </i>
    <i name="e_0_energy">    -14.79347933 </i>
   </energy>
  </scstep>
  <scstep>
   <time name="dav">    0.04    0.04</time>
   <time name="total">    0.11    0.11</time>
   <energy>
    <i name="e_fr_energy">    -14.79569636 </i>
    <i name="e_wo_entrp">    -14.79569636 </i>
    <i name="e_0_energy">    -14.79569636 </i>
   </energy>
  </scstep>
  <scstep>
   <time name="dav">    0.04    0.04</time>
   <time name="total">    0.11    0.11</time>
   <energy>
    <i name="e_fr_energy">    -14.79631649 </i>
    <i name="e_wo_entrp">    -14.79631649 </i>
    <i name="e_0_energy">    -14.79631649 </i>
   </energy>
  </scstep>
  <scstep>
   <time name="dav">    0.03    0.03</time>
   <time name="total">    0.11    0.11</time>
   <energy>
    <i name="e_fr_energy">    -14.79716783 </i>
    <i name="e_wo_entrp">    -14.79716783 </i>
    <i name="e_0_energy">    -14.79716783 </i>
   </energy>
  </scstep>
  <scstep>
   <time name="dav">    0.04    0.04</time>
   <time name="total">    0.11    0.11</time>
   <energy>
    <i name="e_fr_energy">    -14.79730420 </i>
    <i name="e_wo_entrp">    -14.79730420 </i>
    <i name="e_0_energy">    -14.79730420 </i>
   </energy>
  </scstep>
  <scstep>
   <time name="dav">    0.03    0.03</time>
   <time name="total">    0.09    0.09</time>
   <energy>
    <i name="alphaZ">      0.85010715 </i>
    <i name="ewald">     48.90784304 </i>
    <i name="hartreedc">   -533.01021649 </i>
    <i name="XCdc">     41.06079288 </i>
    <i name="pawpsdc">    376.83649821 </i>
    <i name="pawaedc">   -379.93811012 </i>
    <i name="eentropy">     -0.00000000 </i>
    <i name="bandstr">   -148.89472806 </i>
    <i name="atom">    579.39041991 </i>
    <i name="e_fr_energy">    -14.79739348 </i>
    <i name="e_wo_entrp">    -14.79739348 </i>
    <i name="e_0_energy">    -14.79739348 </i>
   </energy>
  </scstep>
  <structure>
   <crystal>
    <varray name="basis" >
     <v>       8.00000000       0.00000000       0.00000000 </v>
     <v>       0.00000000       8.00000000       0.00000000 </v>
     <v>       0.00000000       0.00000000       8.00000000 </v>
    </varray>
    <i name="volume">    512.00000000 </i>
    <varray name="rec_basis" >
     <v>       0.12500000       0.00000000       0.00000000 </v>
     <v>       0.00000000       0.12500000       0.00000000 </v>
     <v>       0.00000000       0.00000000       0.12500000 </v>
    </varray>
   </crystal>
   <varray name="positions" >
    <v>       0.00000000       0.00000000       0.00000000 </v>
    <v>       0.00000000       0.00000000       0.14287500 </v>
   </varray>
  </structure>
  <varray name="forces" >
   <v>       0.00000000      -0.00000000      -0.06342373 </v>
   <v>      -0.00000000       0.00000000       0.06342373 </v>
  </varray>
  <varray name="stress" >
   <v>      -2.41034312       0.00000000       0.00000000 </v>
   <v>       0.00000000      -2.41034312       0.00000000 </v>
   <v>      -0.00000000       0.00000000      -2.10943104 </v>
  </varray>
  <energy>
   <i name="e_fr_energy">    -14.79739348 </i>
   <i name="e_wo_entrp">    -14.79739348 </i>
   <i name="e_0_energy">     -0.00000000 </i>
  </energy>
  <time name="totalsc">    1.88    1.88</time>
  <eigenvalues>
   <array>
    <dimension dim="1">band</dimension>
    <dimension dim="2">kpoint</dimension>
    <dimension dim="3">spin</dimension>
    <field>eigene</field>
    <field>occ</field>
    <set>
     <set comment="spin 1">
      <set comment="kpoint 1">
       <r>  -28.9878    1.0000 </r>
       <r>  -13.7639    1.0000 </r>
       <r>  -11.4654    1.0000 </r>
       <r>  -11.4654    1.0000 </r>
       <r>   -8.7649    1.0000 </r>
       <r>   -1.8501    0.0000 </r>
       <r>   -1.8501    0.0000 </r>
       <r>   -0.2430    0.0000 </r>
       <r>    1.7134    0.0000 </r>
       <r>    1.8819    0.0000 </r>
       <r>    1.8819    0.0000 </r>
       <r>    1.9485    0.0000 </r>
      </set>
     </set>
    </set>
   </array>
  </eigenvalues>
  <separator name="orbital magnetization" >
   <v name="MAGDIPOLOUT">      0.00000000      0.00000000      0.00000000</v>
  </separator>
  <dos>
   <i name="efermi">     -7.81248495 </i>
   <total>
    <array>
     <dimension dim="1">gridpoints</dimension>
     <dimension dim="2">spin</dimension>
     <field>energy</field>
     <field>total</field>
     <field>integrated</field>
     <set>
      <set comment="spin 1">
       <r>   -30.9878     0.0000     0.0000 </r>
       <r>   -30.8713     0.0000     0.0000 </r>
       <r>   -30.7549     0.0000     0.0000 </r>
       <r>   -30.6384     0.0000     0.0000 </r>
       <r>   -30.5220     0.0000     0.0000 </r>
       <r>   -30.4055     0.0000     0.0000 </r>
       <r>   -30.2891     0.0000     0.0000 </r>
       <r>   -30.1726     0.0000     0.0000 </r>
       <r>   -30.0562     0.0000     0.0000 </r>
       <r>   -29.9397     0.0000     0.0000 </r>
       <r>   -29.8232     0.0000     0.0000 </r>
       <r>   -29.7068     0.0000     0.0000 </r>
       <r>   -29.5903     0.0002     0.0000 </r>
       <r>   -29.4739     0.0049     0.0006 </r>
       <r>   -29.3574     0.0719     0.0090 </r>
       <r>   -29.2410     0.5534     0.0734 </r>
       <r>   -29.1245     2.2345     0.3336 </r>
       <r>   -29.0081     4.7432     0.8860 </r>
       <r>   -28.8916     5.3030     1.5035 </r>
       <r>   -28.7752     3.1236     1.8673 </r>
       <r>   -28.6587     0.9681     1.9800 </r>
       <r>   -28.5422     0.1575     1.9984 </r>
       <r>   -28.4258     0.0134     1.9999 </r>
       <r>   -28.3093     0.0006     2.0000 </r>
       <r>   -28.1929     0.0000     2.0000 </r>
       <r>   -28.0764     0.0000     2.0000 </r>
       <r>   -27.9600     0.0000     2.0000 </r>
       <r>   -27.8435     0.0000     2.0000 </r>
       <r>   -27.7271     0.0000     2.0000 </r>
       <r>   -27.6106     0.0000     2.0000 </r>
       <r>   -27.4942     0.0000     2.0000 </r>
       <r>   -27.3777     0.0000     2.0000 </r>
       <r>   -27.2612     0.0000     2.0000 </r>
       <r>   -27.1448     0.0000     2.0000 </r>
       <r>   -27.0283     0.0000     2.0000 </r>
       <r>   -26.9119     0.0000     2.0000 </r>
       <r>   -26.7954     0.0000     2.0000 </r>
       <r>   -26.6790     0.0000     2.0000 </r>
       <r>   -26.5625     0.0000     2.0000 </r>
       <r>   -26.4461     0.0000     2.0000 </r>
       <r>   -26.3296     0.0000     2.0000 </r>
       <r>   -26.2132     0.0000     2.0000 </r>
       <r>   -26.0967     0.0000     2.0000 </r>
       <r>   -25.9803     0.0000     2.0000 </r>
       <r>   -25.8638     0.0000     2.0000 </r>
       <r>   -25.7473     0.0000     2.0000 </r>
       <r>   -25.6309     0.0000     2.0000 </r>
       <r>   -25.5144     0.0000     2.0000 </r>
       <r>   -25.3980     0.0000     2.0000 </r>
       <r>   -25.2815     0.0000     2.0000 </r>
       <r>   -25.1651     0.0000     2.0000 </r>
       <r>   -25.0486     0.0000     2.0000 </r>
       <r>   -24.9322     0.0000     2.0000 </r>
       <r>   -24.8157     0.0000     2.0000 </r>
       <r>   -24.6993     0.0000     2.0000 </r>
       <r>   -24.5828     0.0000     2.0000 </r>
       <r>   -24.4663     0.0000     2.0000 </r>
       <r>   -24.3499     0.0000     2.0000 </r>
       <r>   -24.2334     0.0000     2.0000 </r>
       <r>   -24.1170     0.0000     2.0000 </r>
       <r>   -24.0005     0.0000     2.0000 </r>
       <r>   -23.8841     0.0000     2.0000 </r>
       <r>   -23.7676     0.0000     2.0000 </r>
       <r>   -23.6512     0.0000     2.0000 </r>
       <r>   -23.5347     0.0000     2.0000 </r>
       <r>   -23.4183     0.0000     2.0000 </r>
       <r>   -23.3018     0.0000     2.0000 </r>
       <r>   -23.1854     0.0000     2.0000 </r>
       <r>   -23.0689     0.0000     2.0000 </r>
       <r>   -22.9524     0.0000     2.0000 </r>
       <r>   -22.8360     0.0000     2.0000 </r>
       <r>   -22.7195     0.0000     2.0000 </r>
       <r>   -22.6031     0.0000     2.0000 </r>
       <r>   -22.4866     0.0000     2.0000 </r>
       <r>   -22.3702     0.0000     2.0000 </r>
       <r>   -22.2537     0.0000     2.0000 </r>
       <r>   -22.1373     0.0000     2.0000 </r>
       <r>   -22.0208     0.0000     2.0000 </r>
       <r>   -21.9044     0.0000     2.0000 </r>
       <r>   -21.7879     0.0000     2.0000 </r>
       <r>   -21.6714     0.0000     2.0000 </r>
       <r>   -21.5550     0.0000     2.0000 </r>
       <r>   -21.4385     0.0000     2.0000 </r>
       <r>   -21.3221     0.0000     2.0000 </r>
       <r>   -21.2056     0.0000     2.0000 </r>
       <r>   -21.0892     0.0000     2.0000 </r>
       <r>   -20.9727     0.0000     2.0000 </r>
       <r>   -20.8563     0.0000     2.0000 </r>
       <r>   -20.7398     0.0000     2.0000 </r>
       <r>   -20.6234     0.0000     2.0000 </r>
       <r>   -20.5069     0.0000     2.0000 </r>
       <r>   -20.3905     0.0000     2.0000 </r>
       <r>   -20.2740     0.0000     2.0000 </r>
       <r>   -20.1575     0.0000     2.0000 </r>
       <r>   -20.0411     0.0000     2.0000 </r>
       <r>   -19.9246     0.0000     2.0000 </r>
       <r>   -19.8082     0.0000     2.0000 </r>
       <r>   -19.6917     0.0000     2.0000 </r>
       <r>   -19.5753     0.0000     2.0000 </r>
       <r>   -19.4588     0.0000     2.0000 </r>
       <r>   -19.3424     0.0000     2.0000 </r>
       <r>   -19.2259     0.0000     2.0000 </r>
       <r>   -19.1095     0.0000     2.0000 </r>
       <r>   -18.9930     0.0000     2.0000 </r>
       <r>   -18.8765     0.0000     2.0000 </r>
       <r>   -18.7601     0.0000     2.0000 </r>
       <r>   -18.6436     0.0000     2.0000 </r>
       <r>   -18.5272     0.0000     2.0000 </r>
       <r>   -18.4107     0.0000     2.0000 </r>
       <r>   -18.2943     0.0000     2.0000 </r>
       <r>   -18.1778     0.0000     2.0000 </r>
       <r>   -18.0614     0.0000     2.0000 </r>
       <r>   -17.9449     0.0000     2.0000 </r>
       <r>   -17.8285     0.0000     2.0000 </r>
       <r>   -17.7120     0.0000     2.0000 </r>
       <r>   -17.5955     0.0000     2.0000 </r>
       <r>   -17.4791     0.0000     2.0000 </r>
       <r>   -17.3626     0.0000     2.0000 </r>
       <r>   -17.2462     0.0000     2.0000 </r>
       <r>   -17.1297     0.0000     2.0000 </r>
       <r>   -17.0133     0.0000     2.0000 </r>
       <r>   -16.8968     0.0000     2.0000 </r>
       <r>   -16.7804     0.0000     2.0000 </r>
       <r>   -16.6639     0.0000     2.0000 </r>
       <r>   -16.5475     0.0000     2.0000 </r>
       <r>   -16.4310     0.0000     2.0000 </r>
       <r>   -16.3146     0.0000     2.0000 </r>
       <r>   -16.1981     0.0000     2.0000 </r>
       <r>   -16.0816     0.0000     2.0000 </r>
       <r>   -15.9652     0.0000     2.0000 </r>
       <r>   -15.8487     0.0000     2.0000 </r>
       <r>   -15.7323     0.0000     2.0000 </r>
       <r>   -15.6158     0.0000     2.0000 </r>
       <r>   -15.4994     0.0000     2.0000 </r>
       <r>   -15.3829     0.0000     2.0000 </r>
       <r>   -15.2665     0.0000     2.0000 </r>
       <r>   -15.1500     0.0000     2.0000 </r>
       <r>   -15.0336     0.0000     2.0000 </r>
       <r>   -14.9171     0.0000     2.0000 </r>
       <r>   -14.8006     0.0000     2.0000 </r>
       <r>   -14.6842     0.0000     2.0000 </r>
       <r>   -14.5677     0.0000     2.0000 </r>
       <r>   -14.4513     0.0000     2.0000 </r>
       <r>   -14.3348     0.0005     2.0001 </r>
       <r>   -14.2184     0.0108     2.0013 </r>
       <r>   -14.1019     0.1333     2.0168 </r>
       <r>   -13.9855     0.8613     2.1171 </r>
       <r>   -13.8690     2.9203     2.4572 </r>
       <r>   -13.7526     5.2086     3.0638 </r>
       <r>   -13.6361     4.8942     3.6337 </r>
       <r>   -13.5197     2.4224     3.9158 </r>
       <r>   -13.4032     0.6305     3.9892 </r>
       <r>   -13.2867     0.0860     3.9993 </r>
       <r>   -13.1703     0.0061     4.0000 </r>
       <r>   -13.0538     0.0002     4.0000 </r>
       <r>   -12.9374     0.0000     4.0000 </r>
       <r>   -12.8209     0.0000     4.0000 </r>
       <r>   -12.7045     0.0000     4.0000 </r>
       <r>   -12.5880     0.0000     4.0000 </r>
       <r>   -12.4716     0.0000     4.0000 </r>
       <r>   -12.3551     0.0000     4.0000 </r>
       <r>   -12.2387     0.0000     4.0000 </r>
       <r>   -12.1222     0.0001     4.0000 </r>
       <r>   -12.0057     0.0022     4.0003 </r>
       <r>   -11.8893     0.0445     4.0054 </r>
       <r>   -11.7728     0.4636     4.0594 </r>
       <r>   -11.6564     2.5278     4.3538 </r>
       <r>   -11.5399     7.2366     5.1965 </r>
       <r>   -11.4235    10.9044     6.4664 </r>
       <r>   -11.3070     8.6573     7.4746 </r>
       <r>   -11.1906     3.6194     7.8961 </r>
       <r>   -11.0741     0.7952     7.9887 </r>
       <r>   -10.9577     0.0915     7.9993 </r>
       <r>   -10.8412     0.0055     8.0000 </r>
       <r>   -10.7248     0.0002     8.0000 </r>
       <r>   -10.6083     0.0000     8.0000 </r>
       <r>   -10.4918     0.0000     8.0000 </r>
       <r>   -10.3754     0.0000     8.0000 </r>
       <r>   -10.2589     0.0000     8.0000 </r>
       <r>   -10.1425     0.0000     8.0000 </r>
       <r>   -10.0260     0.0000     8.0000 </r>
       <r>    -9.9096     0.0000     8.0000 </r>
       <r>    -9.7931     0.0000     8.0000 </r>
       <r>    -9.6767     0.0000     8.0000 </r>
       <r>    -9.5602     0.0000     8.0000 </r>
       <r>    -9.4438     0.0000     8.0000 </r>
       <r>    -9.3273     0.0006     8.0001 </r>
       <r>    -9.2108     0.0133     8.0016 </r>
       <r>    -9.0944     0.1562     8.0198 </r>
       <r>    -8.9779     0.9627     8.1319 </r>
       <r>    -8.8615     3.1136     8.4945 </r>
       <r>    -8.7450     5.2988     9.1116 </r>
       <r>    -8.6286     4.7508     9.6648 </r>
       <r>    -8.5121     2.2435     9.9261 </r>
       <r>    -8.3957     0.5570     9.9910 </r>
       <r>    -8.2792     0.0725     9.9994 </r>
       <r>    -8.1628     0.0049    10.0000 </r>
       <r>    -8.0463     0.0002    10.0000 </r>
       <r>    -7.9298     0.0000    10.0000 </r>
       <r>    -7.8134     0.0000    10.0000 </r>
       <r>    -7.6969     0.0000    10.0000 </r>
       <r>    -7.5805     0.0000    10.0000 </r>
       <r>    -7.4640     0.0000    10.0000 </r>
       <r>    -7.3476     0.0000    10.0000 </r>
       <r>    -7.2311     0.0000    10.0000 </r>
       <r>    -7.1147     0.0000    10.0000 </r>
       <r>    -6.9982     0.0000    10.0000 </r>
       <r>    -6.8818     0.0000    10.0000 </r>
       <r>    -6.7653     0.0000    10.0000 </r>
       <r>    -6.6489     0.0000    10.0000 </r>
       <r>    -6.5324     0.0000    10.0000 </r>
       <r>    -6.4159     0.0000    10.0000 </r>
       <r>    -6.2995     0.0000    10.0000 </r>
       <r>    -6.1830     0.0000    10.0000 </r>
       <r>    -6.0666     0.0000    10.0000 </r>
       <r>    -5.9501     0.0000    10.0000 </r>
       <r>    -5.8337     0.0000    10.0000 </r>
       <r>    -5.7172     0.0000    10.0000 </r>
       <r>    -5.6008     0.0000    10.0000 </r>
       <r>    -5.4843     0.0000    10.0000 </r>
       <r>    -5.3679     0.0000    10.0000 </r>
       <r>    -5.2514     0.0000    10.0000 </r>
       <r>    -5.1349     0.0000    10.0000 </r>
       <r>    -5.0185     0.0000    10.0000 </r>
       <r>    -4.9020     0.0000    10.0000 </r>
       <r>    -4.7856     0.0000    10.0000 </r>
       <r>    -4.6691     0.0000    10.0000 </r>
       <r>    -4.5527     0.0000    10.0000 </r>
       <r>    -4.4362     0.0000    10.0000 </r>
       <r>    -4.3198     0.0000    10.0000 </r>
       <r>    -4.2033     0.0000    10.0000 </r>
       <r>    -4.0869     0.0000    10.0000 </r>
       <r>    -3.9704     0.0000    10.0000 </r>
       <r>    -3.8540     0.0000    10.0000 </r>
       <r>    -3.7375     0.0000    10.0000 </r>
       <r>    -3.6210     0.0000    10.0000 </r>
       <r>    -3.5046     0.0000    10.0000 </r>
       <r>    -3.3881     0.0000    10.0000 </r>
       <r>    -3.2717     0.0000    10.0000 </r>
       <r>    -3.1552     0.0000    10.0000 </r>
       <r>    -3.0388     0.0000    10.0000 </r>
       <r>    -2.9223     0.0000    10.0000 </r>
       <r>    -2.8059     0.0000    10.0000 </r>
       <r>    -2.6894     0.0000    10.0000 </r>
       <r>    -2.5730     0.0000    10.0000 </r>
       <r>    -2.4565     0.0003    10.0000 </r>
       <r>    -2.3400     0.0088    10.0011 </r>
       <r>    -2.2236     0.1329    10.0165 </r>
       <r>    -2.1071     1.0457    10.1383 </r>
       <r>    -1.9907     4.3125    10.6405 </r>
       <r>    -1.8742     9.3493    11.7293 </r>
       <r>    -1.7578    10.6753    12.9725 </r>
       <r>    -1.6413     6.4220    13.7204 </r>
       <r>    -1.5249     2.0329    13.9571 </r>
       <r>    -1.4084     0.3377    13.9964 </r>
       <r>    -1.2920     0.0293    13.9998 </r>
       <r>    -1.1755     0.0013    14.0000 </r>
       <r>    -1.0590     0.0000    14.0000 </r>
       <r>    -0.9426     0.0000    14.0000 </r>
       <r>    -0.8261     0.0003    14.0000 </r>
       <r>    -0.7097     0.0080    14.0010 </r>
       <r>    -0.5932     0.1057    14.0133 </r>
       <r>    -0.4768     0.7305    14.0983 </r>
       <r>    -0.3603     2.6490    14.4068 </r>
       <r>    -0.2439     5.0523    14.9952 </r>
       <r>    -0.1274     5.0760    15.5863 </r>
       <r>    -0.0110     2.6865    15.8992 </r>
       <r>     0.1055     0.7479    15.9863 </r>
       <r>     0.2219     0.1092    15.9990 </r>
       <r>     0.3384     0.0083    16.0000 </r>
       <r>     0.4549     0.0003    16.0000 </r>
       <r>     0.5713     0.0000    16.0000 </r>
       <r>     0.6878     0.0000    16.0000 </r>
       <r>     0.8042     0.0000    16.0000 </r>
       <r>     0.9207     0.0000    16.0000 </r>
       <r>     1.0371     0.0000    16.0000 </r>
       <r>     1.1536     0.0006    16.0001 </r>
       <r>     1.2700     0.0144    16.0018 </r>
       <r>     1.3865     0.1722    16.0218 </r>
       <r>     1.5029     1.1277    16.1531 </r>
       <r>     1.6194     4.2938    16.6532 </r>
       <r>     1.7359    10.3836    17.8624 </r>
       <r>     1.8523    16.9726    19.8389 </r>
       <r>     1.9688    18.2551    21.9648 </r>
       <r>     2.0852    11.9526    23.3567 </r>
       <r>     2.2017     4.4809    23.8785 </r>
       <r>     2.3181     0.9311    23.9869 </r>
       <r>     2.4346     0.1054    23.9992 </r>
       <r>     2.5510     0.0064    24.0000 </r>
       <r>     2.6675     0.0002    24.0000 </r>
       <r>     2.7839     0.0000    24.0000 </r>
       <r>     2.9004     0.0000    24.0000 </r>
       <r>     3.0168     0.0000    24.0000 </r>
       <r>     3.1333     0.0000    24.0000 </r>
       <r>     3.2498     0.0000    24.0000 </r>
       <r>     3.3662     0.0000    24.0000 </r>
       <r>     3.4827     0.0000    24.0000 </r>
       <r>     3.5991     0.0000    24.0000 </r>
       <r>     3.7156     0.0000    24.0000 </r>
       <r>     3.8320     0.0000    24.0000 </r>
       <r>     3.9485     0.0000    24.0000 </r>
      </set>
     </set>
    </array>
   </total>
   <partial>
    <array>
     <dimension dim="1">gridpoints</dimension>
     <dimension dim="2">spin</dimension>
     <dimension dim="3">ion</dimension>
     <field>energy</field>
     <field>    s</field>
     <field>   py</field>
     <field>   pz</field>
     <field>   px</field>
     <field>  dxy</field>
     <field>  dyz</field>
     <field>  dz2</field>
     <field>  dxz</field>
     <field>x2-y2</field>
     <set>
      <set comment="ion 1">
       <set comment="spin 1">
        <r>   -30.9878     0.0000     0.0000     0.0000     0.0000     0.0000     0.0000     0.0000     0.0000     0.0000 </r>
        <r>   -30.8713     0.0000     0.0000     0.0000     0.0000     0.0000     0.0000     0.0000     0.0000     0.0000 </r>
        <r>   -30.7549     0.0000     0.0000     0.0000     0.0000     0.0000     0.0000     0.0000     0.0000     0.0000 </r>
        <r>   -30.6384     0.0000     0.0000     0.0000     0.0000     0.0000     0.0000     0.0000     0.0000     0.0000 </r>
        <r>   -30.5220     0.0000     0.0000     0.0000     0.0000     0.0000     0.0000     0.0000     0.0000     0.0000 </r>
        <r>   -30.4055     0.0000     0.0000     0.0000     0.0000     0.0000     0.0000     0.0000     0.0000     0.0000 </r>
        <r>   -30.2891     0.0000     0.0000     0.0000     0.0000     0.0000     0.0000     0.0000     0.0000     0.0000 </r>
        <r>   -30.1726     0.0000     0.0000     0.0000     0.0000     0.0000     0.0000     0.0000     0.0000     0.0000 </r>
        <r>   -30.0562     0.0000     0.0000     0.0000     0.0000     0.0000     0.0000     0.0000     0.0000     0.0000 </r>
        <r>   -29.9397     0.0000     0.0000     0.0000     0.0000     0.0000     0.0000     0.0000     0.0000     0.0000 </r>
        <r>   -29.8232     0.0000     0.0000     0.0000     0.0000     0.0000     0.0000     0.0000     0.0000     0.0000 </r>
        <r>   -29.7068     0.0000     0.0000     0.0000     0.0000     0.0000     0.0000     0.0000     0.0000     0.0000 </r>
        <r>   -29.5903     0.0001     0.0000     0.0000     0.0000     0.0000     0.0000     0.0000     0.0000     0.0000 </r>
        <r>   -29.4739     0.0032     0.0000     0.0005     0.0000     0.0000     0.0000     0.0000     0.0000     0.0000 </r>
        <r>   -29.3574     0.0473     0.0000     0.0071     0.0000     0.0000     0.0000     0.0000     0.0000     0.0000 </r>
        <r>   -29.2410     0.3642     0.0000     0.0545     0.0000     0.0000     0.0000     0.0000     0.0000     0.0000 </r>
        <r>   -29.1245     1.4704     0.0000     0.2201     0.0000     0.0000     0.0000     0.0000     0.0000     0.0000 </r>
        <r>   -29.0081     3.1212     0.0000     0.4672     0.0000     0.0000     0.0000     0.0000     0.0000     0.0000 </r>
        <r>   -28.8916     3.4896     0.0000     0.5223     0.0000     0.0000     0.0000     0.0000     0.0000     0.0000 </r>
        <r>   -28.7752     2.0554     0.0000     0.3077     0.0000     0.0000     0.0000     0.0000     0.0000     0.0000 </r>
        <r>   -28.6587     0.6370     0.0000     0.0954     0.0000     0.0000     0.0000     0.0000     0.0000     0.0000 </r>
        <r>   -28.5422     0.1036     0.0000     0.0155     0.0000     0.0000     0.0000     0.0000     0.0000     0.0000 </r>
        <r>   -28.4258     0.0088     0.0000     0.0013     0.0000     0.0000     0.0000     0.0000     0.0000     0.0000 </r>
        <r>   -28.3093     0.0004     0.0000     0.0001     0.0000     0.0000     0.0000     0.0000     0.0000     0.0000 </r>
        <r>   -28.1929     0.0000     0.0000     0.0000     0.0000     0.0000     0.0000     0.0000     0.0000     0.0000 </r>
        <r>   -28.0764     0.0000     0.0000     0.0000     0.0000     0.0000     0.0000     0.0000     0.0000     0.0000 </r>
        <r>   -27.9600     0.0000     0.0000     0.0000     0.0000     0.0000     0.0000     0.0000     0.0000     0.0000 </r>
        <r>   -27.8435     0.0000     0.0000     0.0000     0.0000     0.0000     0.0000     0.0000     0.0000     0.0000 </r>
        <r>   -27.7271     0.0000     0.0000     0.0000     0.0000     0.0000     0.0000     0.0000     0.0000     0.0000 </r>
        <r>   -27.6106     0.0000     0.0000     0.0000     0.0000     0.0000     0.0000     0.0000     0.0000     0.0000 </r>
        <r>   -27.4942     0.0000     0.0000     0.0000     0.0000     0.0000     0.0000     0.0000     0.0000     0.0000 </r>
        <r>   -27.3777     0.0000     0.0000     0.0000     0.0000     0.0000     0.0000     0.0000     0.0000     0.0000 </r>
        <r>   -27.2612     0.0000     0.0000     0.0000     0.0000     0.0000     0.0000     0.0000     0.0000     0.0000 </r>
        <r>   -27.1448     0.0000     0.0000     0.0000     0.0000     0.0000     0.0000     0.0000     0.0000     0.0000 </r>
        <r>   -27.0283     0.0000     0.0000     0.0000     0.0000     0.0000     0.0000     0.0000     0.0000     0.0000 </r>
        <r>   -26.9119     0.0000     0.0000     0.0000     0.0000     0.0000     0.0000     0.0000     0.0000     0.0000 </r>
        <r>   -26.7954     0.0000     0.0000     0.0000     0.0000     0.0000     0.0000     0.0000     0.0000     0.0000 </r>
        <r>   -26.6790     0.0000     0.0000     0.0000     0.0000     0.0000     0.0000     0.0000     0.0000     0.0000 </r>
        <r>   -26.5625     0.0000     0.0000     0.0000     0.0000     0.0000     0.0000     0.0000     0.0000     0.0000 </r>
        <r>   -26.4461     0.0000     0.0000     0.0000     0.0000     0.0000     0.0000     0.0000     0.0000     0.0000 </r>
        <r>   -26.3296     0.0000     0.0000     0.0000     0.0000     0.0000     0.0000     0.0000     0.0000     0.0000 </r>
        <r>   -26.2132     0.0000     0.0000     0.0000     0.0000     0.0000     0.0000     0.0000     0.0000     0.0000 </r>
        <r>   -26.0967     0.0000     0.0000     0.0000     0.0000     0.0000     0.0000     0.0000     0.0000     0.0000 </r>
        <r>   -25.9803     0.0000     0.0000     0.0000     0.0000     0.0000     0.0000     0.0000     0.0000     0.0000 </r>
        <r>   -25.8638     0.0000     0.0000     0.0000     0.0000     0.0000     0.0000     0.0000     0.0000     0.0000 </r>
        <r>   -25.7473     0.0000     0.0000     0.0000     0.0000     0.0000     0.0000     0.0000     0.0000     0.0000 </r>
        <r>   -25.6309     0.0000     0.0000     0.0000     0.0000     0.0000     0.0000     0.0000     0.0000     0.0000 </r>
        <r>   -25.5144     0.0000     0.0000     0.0000     0.0000     0.0000     0.0000     0.0000     0.0000     0.0000 </r>
        <r>   -25.3980     0.0000     0.0000     0.0000     0.0000     0.0000     0.0000     0.0000     0.0000     0.0000 </r>
        <r>   -25.2815     0.0000     0.0000     0.0000     0.0000     0.0000     0.0000     0.0000     0.0000     0.0000 </r>
        <r>   -25.1651     0.0000     0.0000     0.0000     0.0000     0.0000     0.0000     0.0000     0.0000     0.0000 </r>
        <r>   -25.0486     0.0000     0.0000     0.0000     0.0000     0.0000     0.0000     0.0000     0.0000     0.0000 </r>
        <r>   -24.9322     0.0000     0.0000     0.0000     0.0000     0.0000     0.0000     0.0000     0.0000     0.0000 </r>
        <r>   -24.8157     0.0000     0.0000     0.0000     0.0000     0.0000     0.0000     0.0000     0.0000     0.0000 </r>
        <r>   -24.6993     0.0000     0.0000     0.0000     0.0000     0.0000     0.0000     0.0000     0.0000     0.0000 </r>
        <r>   -24.5828     0.0000     0.0000     0.0000     0.0000     0.0000     0.0000     0.0000     0.0000     0.0000 </r>
        <r>   -24.4663     0.0000     0.0000     0.0000     0.0000     0.0000     0.0000     0.0000     0.0000     0.0000 </r>
        <r>   -24.3499     0.0000     0.0000     0.0000     0.0000     0.0000     0.0000     0.0000     0.0000     0.0000 </r>
        <r>   -24.2334     0.0000     0.0000     0.0000     0.0000     0.0000     0.0000     0.0000     0.0000     0.0000 </r>
        <r>   -24.1170     0.0000     0.0000     0.0000     0.0000     0.0000     0.0000     0.0000     0.0000     0.0000 </r>
        <r>   -24.0005     0.0000     0.0000     0.0000     0.0000     0.0000     0.0000     0.0000     0.0000     0.0000 </r>
        <r>   -23.8841     0.0000     0.0000     0.0000     0.0000     0.0000     0.0000     0.0000     0.0000     0.0000 </r>
        <r>   -23.7676     0.0000     0.0000     0.0000     0.0000     0.0000     0.0000     0.0000     0.0000     0.0000 </r>
        <r>   -23.6512     0.0000     0.0000     0.0000     0.0000     0.0000     0.0000     0.0000     0.0000     0.0000 </r>
        <r>   -23.5347     0.0000     0.0000     0.0000     0.0000     0.0000     0.0000     0.0000     0.0000     0.0000 </r>
        <r>   -23.4183     0.0000     0.0000     0.0000     0.0000     0.0000     0.0000     0.0000     0.0000     0.0000 </r>
        <r>   -23.3018     0.0000     0.0000     0.0000     0.0000     0.0000     0.0000     0.0000     0.0000     0.0000 </r>
        <r>   -23.1854     0.0000     0.0000     0.0000     0.0000     0.0000     0.0000     0.0000     0.0000     0.0000 </r>
        <r>   -23.0689     0.0000     0.0000     0.0000     0.0000     0.0000     0.0000     0.0000     0.0000     0.0000 </r>
        <r>   -22.9524     0.0000     0.0000     0.0000     0.0000     0.0000     0.0000     0.0000     0.0000     0.0000 </r>
        <r>   -22.8360     0.0000     0.0000     0.0000     0.0000     0.0000     0.0000     0.0000     0.0000     0.0000 </r>
        <r>   -22.7195     0.0000     0.0000     0.0000     0.0000     0.0000     0.0000     0.0000     0.0000     0.0000 </r>
        <r>   -22.6031     0.0000     0.0000     0.0000     0.0000     0.0000     0.0000     0.0000     0.0000     0.0000 </r>
        <r>   -22.4866     0.0000     0.0000     0.0000     0.0000     0.0000     0.0000     0.0000     0.0000     0.0000 </r>
        <r>   -22.3702     0.0000     0.0000     0.0000     0.0000     0.0000     0.0000     0.0000     0.0000     0.0000 </r>
        <r>   -22.2537     0.0000     0.0000     0.0000     0.0000     0.0000     0.0000     0.0000     0.0000     0.0000 </r>
        <r>   -22.1373     0.0000     0.0000     0.0000     0.0000     0.0000     0.0000     0.0000     0.0000     0.0000 </r>
        <r>   -22.0208     0.0000     0.0000     0.0000     0.0000     0.0000     0.0000     0.0000     0.0000     0.0000 </r>
        <r>   -21.9044     0.0000     0.0000     0.0000     0.0000     0.0000     0.0000     0.0000     0.0000     0.0000 </r>
        <r>   -21.7879     0.0000     0.0000     0.0000     0.0000     0.0000     0.0000     0.0000     0.0000     0.0000 </r>
        <r>   -21.6714     0.0000     0.0000     0.0000     0.0000     0.0000     0.0000     0.0000     0.0000     0.0000 </r>
        <r>   -21.5550     0.0000     0.0000     0.0000     0.0000     0.0000     0.0000     0.0000     0.0000     0.0000 </r>
        <r>   -21.4385     0.0000     0.0000     0.0000     0.0000     0.0000     0.0000     0.0000     0.0000     0.0000 </r>
        <r>   -21.3221     0.0000     0.0000     0.0000     0.0000     0.0000     0.0000     0.0000     0.0000     0.0000 </r>
        <r>   -21.2056     0.0000     0.0000     0.0000     0.0000     0.0000     0.0000     0.0000     0.0000     0.0000 </r>
        <r>   -21.0892     0.0000     0.0000     0.0000     0.0000     0.0000     0.0000     0.0000     0.0000     0.0000 </r>
        <r>   -20.9727     0.0000     0.0000     0.0000     0.0000     0.0000     0.0000     0.0000     0.0000     0.0000 </r>
        <r>   -20.8563     0.0000     0.0000     0.0000     0.0000     0.0000     0.0000     0.0000     0.0000     0.0000 </r>
        <r>   -20.7398     0.0000     0.0000     0.0000     0.0000     0.0000     0.0000     0.0000     0.0000     0.0000 </r>
        <r>   -20.6234     0.0000     0.0000     0.0000     0.0000     0.0000     0.0000     0.0000     0.0000     0.0000 </r>
        <r>   -20.5069     0.0000     0.0000     0.0000     0.0000     0.0000     0.0000     0.0000     0.0000     0.0000 </r>
        <r>   -20.3905     0.0000     0.0000     0.0000     0.0000     0.0000     0.0000     0.0000     0.0000     0.0000 </r>
        <r>   -20.2740     0.0000     0.0000     0.0000     0.0000     0.0000     0.0000     0.0000     0.0000     0.0000 </r>
        <r>   -20.1575     0.0000     0.0000     0.0000     0.0000     0.0000     0.0000     0.0000     0.0000     0.0000 </r>
        <r>   -20.0411     0.0000     0.0000     0.0000     0.0000     0.0000     0.0000     0.0000     0.0000     0.0000 </r>
        <r>   -19.9246     0.0000     0.0000     0.0000     0.0000     0.0000     0.0000     0.0000     0.0000     0.0000 </r>
        <r>   -19.8082     0.0000     0.0000     0.0000     0.0000     0.0000     0.0000     0.0000     0.0000     0.0000 </r>
        <r>   -19.6917     0.0000     0.0000     0.0000     0.0000     0.0000     0.0000     0.0000     0.0000     0.0000 </r>
        <r>   -19.5753     0.0000     0.0000     0.0000     0.0000     0.0000     0.0000     0.0000     0.0000     0.0000 </r>
        <r>   -19.4588     0.0000     0.0000     0.0000     0.0000     0.0000     0.0000     0.0000     0.0000     0.0000 </r>
        <r>   -19.3424     0.0000     0.0000     0.0000     0.0000     0.0000     0.0000     0.0000     0.0000     0.0000 </r>
        <r>   -19.2259     0.0000     0.0000     0.0000     0.0000     0.0000     0.0000     0.0000     0.0000     0.0000 </r>
        <r>   -19.1095     0.0000     0.0000     0.0000     0.0000     0.0000     0.0000     0.0000     0.0000     0.0000 </r>
        <r>   -18.9930     0.0000     0.0000     0.0000     0.0000     0.0000     0.0000     0.0000     0.0000     0.0000 </r>
        <r>   -18.8765     0.0000     0.0000     0.0000     0.0000     0.0000     0.0000     0.0000     0.0000     0.0000 </r>
        <r>   -18.7601     0.0000     0.0000     0.0000     0.0000     0.0000     0.0000     0.0000     0.0000     0.0000 </r>
        <r>   -18.6436     0.0000     0.0000     0.0000     0.0000     0.0000     0.0000     0.0000     0.0000     0.0000 </r>
        <r>   -18.5272     0.0000     0.0000     0.0000     0.0000     0.0000     0.0000     0.0000     0.0000     0.0000 </r>
        <r>   -18.4107     0.0000     0.0000     0.0000     0.0000     0.0000     0.0000     0.0000     0.0000     0.0000 </r>
        <r>   -18.2943     0.0000     0.0000     0.0000     0.0000     0.0000     0.0000     0.0000     0.0000     0.0000 </r>
        <r>   -18.1778     0.0000     0.0000     0.0000     0.0000     0.0000     0.0000     0.0000     0.0000     0.0000 </r>
        <r>   -18.0614     0.0000     0.0000     0.0000     0.0000     0.0000     0.0000     0.0000     0.0000     0.0000 </r>
        <r>   -17.9449     0.0000     0.0000     0.0000     0.0000     0.0000     0.0000     0.0000     0.0000     0.0000 </r>
        <r>   -17.8285     0.0000     0.0000     0.0000     0.0000     0.0000     0.0000     0.0000     0.0000     0.0000 </r>
        <r>   -17.7120     0.0000     0.0000     0.0000     0.0000     0.0000     0.0000     0.0000     0.0000     0.0000 </r>
        <r>   -17.5955     0.0000     0.0000     0.0000     0.0000     0.0000     0.0000     0.0000     0.0000     0.0000 </r>
        <r>   -17.4791     0.0000     0.0000     0.0000     0.0000     0.0000     0.0000     0.0000     0.0000     0.0000 </r>
        <r>   -17.3626     0.0000     0.0000     0.0000     0.0000     0.0000     0.0000     0.0000     0.0000     0.0000 </r>
        <r>   -17.2462     0.0000     0.0000     0.0000     0.0000     0.0000     0.0000     0.0000     0.0000     0.0000 </r>
        <r>   -17.1297     0.0000     0.0000     0.0000     0.0000     0.0000     0.0000     0.0000     0.0000     0.0000 </r>
        <r>   -17.0133     0.0000     0.0000     0.0000     0.0000     0.0000     0.0000     0.0000     0.0000     0.0000 </r>
        <r>   -16.8968     0.0000     0.0000     0.0000     0.0000     0.0000     0.0000     0.0000     0.0000     0.0000 </r>
        <r>   -16.7804     0.0000     0.0000     0.0000     0.0000     0.0000     0.0000     0.0000     0.0000     0.0000 </r>
        <r>   -16.6639     0.0000     0.0000     0.0000     0.0000     0.0000     0.0000     0.0000     0.0000     0.0000 </r>
        <r>   -16.5475     0.0000     0.0000     0.0000     0.0000     0.0000     0.0000     0.0000     0.0000     0.0000 </r>
        <r>   -16.4310     0.0000     0.0000     0.0000     0.0000     0.0000     0.0000     0.0000     0.0000     0.0000 </r>
        <r>   -16.3146     0.0000     0.0000     0.0000     0.0000     0.0000     0.0000     0.0000     0.0000     0.0000 </r>
        <r>   -16.1981     0.0000     0.0000     0.0000     0.0000     0.0000     0.0000     0.0000     0.0000     0.0000 </r>
        <r>   -16.0816     0.0000     0.0000     0.0000     0.0000     0.0000     0.0000     0.0000     0.0000     0.0000 </r>
        <r>   -15.9652     0.0000     0.0000     0.0000     0.0000     0.0000     0.0000     0.0000     0.0000     0.0000 </r>
        <r>   -15.8487     0.0000     0.0000     0.0000     0.0000     0.0000     0.0000     0.0000     0.0000     0.0000 </r>
        <r>   -15.7323     0.0000     0.0000     0.0000     0.0000     0.0000     0.0000     0.0000     0.0000     0.0000 </r>
        <r>   -15.6158     0.0000     0.0000     0.0000     0.0000     0.0000     0.0000     0.0000     0.0000     0.0000 </r>
        <r>   -15.4994     0.0000     0.0000     0.0000     0.0000     0.0000     0.0000     0.0000     0.0000     0.0000 </r>
        <r>   -15.3829     0.0000     0.0000     0.0000     0.0000     0.0000     0.0000     0.0000     0.0000     0.0000 </r>
        <r>   -15.2665     0.0000     0.0000     0.0000     0.0000     0.0000     0.0000     0.0000     0.0000     0.0000 </r>
        <r>   -15.1500     0.0000     0.0000     0.0000     0.0000     0.0000     0.0000     0.0000     0.0000     0.0000 </r>
        <r>   -15.0336     0.0000     0.0000     0.0000     0.0000     0.0000     0.0000     0.0000     0.0000     0.0000 </r>
        <r>   -14.9171     0.0000     0.0000     0.0000     0.0000     0.0000     0.0000     0.0000     0.0000     0.0000 </r>
        <r>   -14.8006     0.0000     0.0000     0.0000     0.0000     0.0000     0.0000     0.0000     0.0000     0.0000 </r>
        <r>   -14.6842     0.0000     0.0000     0.0000     0.0000     0.0000     0.0000     0.0000     0.0000     0.0000 </r>
        <r>   -14.5677     0.0000     0.0000     0.0000     0.0000     0.0000     0.0000     0.0000     0.0000     0.0000 </r>
        <r>   -14.4513     0.0000     0.0000     0.0000     0.0000     0.0000     0.0000     0.0000     0.0000     0.0000 </r>
        <r>   -14.3348     0.0001     0.0000     0.0002     0.0000     0.0000     0.0000     0.0000     0.0000     0.0000 </r>
        <r>   -14.2184     0.0018     0.0000     0.0048     0.0000     0.0000     0.0000     0.0000     0.0000     0.0000 </r>
        <r>   -14.1019     0.0224     0.0000     0.0598     0.0000     0.0000     0.0000     0.0000     0.0000     0.0000 </r>
        <r>   -13.9855     0.1449     0.0000     0.3865     0.0000     0.0000     0.0000     0.0000     0.0000     0.0000 </r>
        <r>   -13.8690     0.4911     0.0000     1.3103     0.0000     0.0000     0.0000     0.0000     0.0000     0.0000 </r>
        <r>   -13.7526     0.8760     0.0000     2.3371     0.0000     0.0000     0.0000     0.0000     0.0000     0.0000 </r>
        <r>   -13.6361     0.8231     0.0000     2.1961     0.0000     0.0000     0.0000     0.0000     0.0000     0.0000 </r>
        <r>   -13.5197     0.4074     0.0000     1.0869     0.0000     0.0000     0.0000     0.0000     0.0000     0.0000 </r>
        <r>   -13.4032     0.1060     0.0000     0.2829     0.0000     0.0000     0.0000     0.0000     0.0000     0.0000 </r>
        <r>   -13.2867     0.0145     0.0000     0.0386     0.0000     0.0000     0.0000     0.0000     0.0000     0.0000 </r>
        <r>   -13.1703     0.0010     0.0000     0.0028     0.0000     0.0000     0.0000     0.0000     0.0000     0.0000 </r>
        <r>   -13.0538     0.0000     0.0000     0.0001     0.0000     0.0000     0.0000     0.0000     0.0000     0.0000 </r>
        <r>   -12.9374     0.0000     0.0000     0.0000     0.0000     0.0000     0.0000     0.0000     0.0000     0.0000 </r>
        <r>   -12.8209     0.0000     0.0000     0.0000     0.0000     0.0000     0.0000     0.0000     0.0000     0.0000 </r>
        <r>   -12.7045     0.0000     0.0000     0.0000     0.0000     0.0000     0.0000     0.0000     0.0000     0.0000 </r>
        <r>   -12.5880     0.0000     0.0000     0.0000     0.0000     0.0000     0.0000     0.0000     0.0000     0.0000 </r>
        <r>   -12.4716     0.0000     0.0000     0.0000     0.0000     0.0000     0.0000     0.0000     0.0000     0.0000 </r>
        <r>   -12.3551     0.0000     0.0000     0.0000     0.0000     0.0000     0.0000     0.0000     0.0000     0.0000 </r>
        <r>   -12.2387     0.0000     0.0000     0.0000     0.0000     0.0000     0.0000     0.0000     0.0000     0.0000 </r>
        <r>   -12.1222     0.0000     0.0000     0.0000     0.0000     0.0000     0.0000     0.0000     0.0000     0.0000 </r>
        <r>   -12.0057     0.0000     0.0006     0.0000     0.0006     0.0000     0.0000     0.0000     0.0000     0.0000 </r>
        <r>   -11.8893     0.0000     0.0122     0.0000     0.0122     0.0000     0.0000     0.0000     0.0000     0.0000 </r>
        <r>   -11.7728     0.0000     0.1266     0.0000     0.1266     0.0000     0.0000     0.0000     0.0000     0.0000 </r>
        <r>   -11.6564     0.0000     0.6904     0.0000     0.6904     0.0000     0.0000     0.0000     0.0000     0.0000 </r>
        <r>   -11.5399     0.0000     1.9764     0.0000     1.9764     0.0000     0.0000     0.0000     0.0000     0.0000 </r>
        <r>   -11.4235     0.0000     2.9782     0.0000     2.9782     0.0000     0.0000     0.0000     0.0000     0.0000 </r>
        <r>   -11.3070     0.0000     2.3645     0.0000     2.3645     0.0000     0.0000     0.0000     0.0000     0.0000 </r>
        <r>   -11.1906     0.0000     0.9885     0.0000     0.9885     0.0000     0.0000     0.0000     0.0000     0.0000 </r>
        <r>   -11.0741     0.0000     0.2172     0.0000     0.2172     0.0000     0.0000     0.0000     0.0000     0.0000 </r>
        <r>   -10.9577     0.0000     0.0250     0.0000     0.0250     0.0000     0.0000     0.0000     0.0000     0.0000 </r>
        <r>   -10.8412     0.0000     0.0015     0.0000     0.0015     0.0000     0.0000     0.0000     0.0000     0.0000 </r>
        <r>   -10.7248     0.0000     0.0000     0.0000     0.0000     0.0000     0.0000     0.0000     0.0000     0.0000 </r>
        <r>   -10.6083     0.0000     0.0000     0.0000     0.0000     0.0000     0.0000     0.0000     0.0000     0.0000 </r>
        <r>   -10.4918     0.0000     0.0000     0.0000     0.0000     0.0000     0.0000     0.0000     0.0000     0.0000 </r>
        <r>   -10.3754     0.0000     0.0000     0.0000     0.0000     0.0000     0.0000     0.0000     0.0000     0.0000 </r>
        <r>   -10.2589     0.0000     0.0000     0.0000     0.0000     0.0000     0.0000     0.0000     0.0000     0.0000 </r>
        <r>   -10.1425     0.0000     0.0000     0.0000     0.0000     0.0000     0.0000     0.0000     0.0000     0.0000 </r>
        <r>   -10.0260     0.0000     0.0000     0.0000     0.0000     0.0000     0.0000     0.0000     0.0000     0.0000 </r>
        <r>    -9.9096     0.0000     0.0000     0.0000     0.0000     0.0000     0.0000     0.0000     0.0000     0.0000 </r>
        <r>    -9.7931     0.0000     0.0000     0.0000     0.0000     0.0000     0.0000     0.0000     0.0000     0.0000 </r>
        <r>    -9.6767     0.0000     0.0000     0.0000     0.0000     0.0000     0.0000     0.0000     0.0000     0.0000 </r>
        <r>    -9.5602     0.0000     0.0000     0.0000     0.0000     0.0000     0.0000     0.0000     0.0000     0.0000 </r>
        <r>    -9.4438     0.0000     0.0000     0.0000     0.0000     0.0000     0.0000     0.0000     0.0000     0.0000 </r>
        <r>    -9.3273     0.0000     0.0000     0.0001     0.0000     0.0000     0.0000     0.0000     0.0000     0.0000 </r>
        <r>    -9.2108     0.0000     0.0000     0.0018     0.0000     0.0000     0.0000     0.0000     0.0000     0.0000 </r>
        <r>    -9.0944     0.0002     0.0000     0.0211     0.0000     0.0000     0.0000     0.0000     0.0000     0.0000 </r>
        <r>    -8.9779     0.0010     0.0000     0.1303     0.0000     0.0000     0.0000     0.0000     0.0000     0.0000 </r>
        <r>    -8.8615     0.0032     0.0000     0.4214     0.0000     0.0000     0.0000     0.0000     0.0000     0.0000 </r>
        <r>    -8.7450     0.0054     0.0000     0.7171     0.0000     0.0000     0.0000     0.0000     0.0000     0.0000 </r>
        <r>    -8.6286     0.0048     0.0000     0.6429     0.0000     0.0000     0.0000     0.0000     0.0000     0.0000 </r>
        <r>    -8.5121     0.0023     0.0000     0.3036     0.0000     0.0000     0.0000     0.0000     0.0000     0.0000 </r>
        <r>    -8.3957     0.0006     0.0000     0.0754     0.0000     0.0000     0.0000     0.0000     0.0000     0.0000 </r>
        <r>    -8.2792     0.0001     0.0000     0.0098     0.0000     0.0000     0.0000     0.0000     0.0000     0.0000 </r>
        <r>    -8.1628     0.0000     0.0000     0.0007     0.0000     0.0000     0.0000     0.0000     0.0000     0.0000 </r>
        <r>    -8.0463     0.0000     0.0000     0.0000     0.0000     0.0000     0.0000     0.0000     0.0000     0.0000 </r>
        <r>    -7.9298     0.0000     0.0000     0.0000     0.0000     0.0000     0.0000     0.0000     0.0000     0.0000 </r>
        <r>    -7.8134     0.0000     0.0000     0.0000     0.0000     0.0000     0.0000     0.0000     0.0000     0.0000 </r>
        <r>    -7.6969     0.0000     0.0000     0.0000     0.0000     0.0000     0.0000     0.0000     0.0000     0.0000 </r>
        <r>    -7.5805     0.0000     0.0000     0.0000     0.0000     0.0000     0.0000     0.0000     0.0000     0.0000 </r>
        <r>    -7.4640     0.0000     0.0000     0.0000     0.0000     0.0000     0.0000     0.0000     0.0000     0.0000 </r>
        <r>    -7.3476     0.0000     0.0000     0.0000     0.0000     0.0000     0.0000     0.0000     0.0000     0.0000 </r>
        <r>    -7.2311     0.0000     0.0000     0.0000     0.0000     0.0000     0.0000     0.0000     0.0000     0.0000 </r>
        <r>    -7.1147     0.0000     0.0000     0.0000     0.0000     0.0000     0.0000     0.0000     0.0000     0.0000 </r>
        <r>    -6.9982     0.0000     0.0000     0.0000     0.0000     0.0000     0.0000     0.0000     0.0000     0.0000 </r>
        <r>    -6.8818     0.0000     0.0000     0.0000     0.0000     0.0000     0.0000     0.0000     0.0000     0.0000 </r>
        <r>    -6.7653     0.0000     0.0000     0.0000     0.0000     0.0000     0.0000     0.0000     0.0000     0.0000 </r>
        <r>    -6.6489     0.0000     0.0000     0.0000     0.0000     0.0000     0.0000     0.0000     0.0000     0.0000 </r>
        <r>    -6.5324     0.0000     0.0000     0.0000     0.0000     0.0000     0.0000     0.0000     0.0000     0.0000 </r>
        <r>    -6.4159     0.0000     0.0000     0.0000     0.0000     0.0000     0.0000     0.0000     0.0000     0.0000 </r>
        <r>    -6.2995     0.0000     0.0000     0.0000     0.0000     0.0000     0.0000     0.0000     0.0000     0.0000 </r>
        <r>    -6.1830     0.0000     0.0000     0.0000     0.0000     0.0000     0.0000     0.0000     0.0000     0.0000 </r>
        <r>    -6.0666     0.0000     0.0000     0.0000     0.0000     0.0000     0.0000     0.0000     0.0000     0.0000 </r>
        <r>    -5.9501     0.0000     0.0000     0.0000     0.0000     0.0000     0.0000     0.0000     0.0000     0.0000 </r>
        <r>    -5.8337     0.0000     0.0000     0.0000     0.0000     0.0000     0.0000     0.0000     0.0000     0.0000 </r>
        <r>    -5.7172     0.0000     0.0000     0.0000     0.0000     0.0000     0.0000     0.0000     0.0000     0.0000 </r>
        <r>    -5.6008     0.0000     0.0000     0.0000     0.0000     0.0000     0.0000     0.0000     0.0000     0.0000 </r>
        <r>    -5.4843     0.0000     0.0000     0.0000     0.0000     0.0000     0.0000     0.0000     0.0000     0.0000 </r>
        <r>    -5.3679     0.0000     0.0000     0.0000     0.0000     0.0000     0.0000     0.0000     0.0000     0.0000 </r>
        <r>    -5.2514     0.0000     0.0000     0.0000     0.0000     0.0000     0.0000     0.0000     0.0000     0.0000 </r>
        <r>    -5.1349     0.0000     0.0000     0.0000     0.0000     0.0000     0.0000     0.0000     0.0000     0.0000 </r>
        <r>    -5.0185     0.0000     0.0000     0.0000     0.0000     0.0000     0.0000     0.0000     0.0000     0.0000 </r>
        <r>    -4.9020     0.0000     0.0000     0.0000     0.0000     0.0000     0.0000     0.0000     0.0000     0.0000 </r>
        <r>    -4.7856     0.0000     0.0000     0.0000     0.0000     0.0000     0.0000     0.0000     0.0000     0.0000 </r>
        <r>    -4.6691     0.0000     0.0000     0.0000     0.0000     0.0000     0.0000     0.0000     0.0000     0.0000 </r>
        <r>    -4.5527     0.0000     0.0000     0.0000     0.0000     0.0000     0.0000     0.0000     0.0000     0.0000 </r>
        <r>    -4.4362     0.0000     0.0000     0.0000     0.0000     0.0000     0.0000     0.0000     0.0000     0.0000 </r>
        <r>    -4.3198     0.0000     0.0000     0.0000     0.0000     0.0000     0.0000     0.0000     0.0000     0.0000 </r>
        <r>    -4.2033     0.0000     0.0000     0.0000     0.0000     0.0000     0.0000     0.0000     0.0000     0.0000 </r>
        <r>    -4.0869     0.0000     0.0000     0.0000     0.0000     0.0000     0.0000     0.0000     0.0000     0.0000 </r>
        <r>    -3.9704     0.0000     0.0000     0.0000     0.0000     0.0000     0.0000     0.0000     0.0000     0.0000 </r>
        <r>    -3.8540     0.0000     0.0000     0.0000     0.0000     0.0000     0.0000     0.0000     0.0000     0.0000 </r>
        <r>    -3.7375     0.0000     0.0000     0.0000     0.0000     0.0000     0.0000     0.0000     0.0000     0.0000 </r>
        <r>    -3.6210     0.0000     0.0000     0.0000     0.0000     0.0000     0.0000     0.0000     0.0000     0.0000 </r>
        <r>    -3.5046     0.0000     0.0000     0.0000     0.0000     0.0000     0.0000     0.0000     0.0000     0.0000 </r>
        <r>    -3.3881     0.0000     0.0000     0.0000     0.0000     0.0000     0.0000     0.0000     0.0000     0.0000 </r>
        <r>    -3.2717     0.0000     0.0000     0.0000     0.0000     0.0000     0.0000     0.0000     0.0000     0.0000 </r>
        <r>    -3.1552     0.0000     0.0000     0.0000     0.0000     0.0000     0.0000     0.0000     0.0000     0.0000 </r>
        <r>    -3.0388     0.0000     0.0000     0.0000     0.0000     0.0000     0.0000     0.0000     0.0000     0.0000 </r>
        <r>    -2.9223     0.0000     0.0000     0.0000     0.0000     0.0000     0.0000     0.0000     0.0000     0.0000 </r>
        <r>    -2.8059     0.0000     0.0000     0.0000     0.0000     0.0000     0.0000     0.0000     0.0000     0.0000 </r>
        <r>    -2.6894     0.0000     0.0000     0.0000     0.0000     0.0000     0.0000     0.0000     0.0000     0.0000 </r>
        <r>    -2.5730     0.0000     0.0000     0.0000     0.0000     0.0000     0.0000     0.0000     0.0000     0.0000 </r>
        <r>    -2.4565     0.0000     0.0000     0.0000     0.0000     0.0000     0.0000     0.0000     0.0000     0.0000 </r>
        <r>    -2.3400     0.0000     0.0009     0.0000     0.0009     0.0000     0.0000     0.0000     0.0000     0.0000 </r>
        <r>    -2.2236     0.0000     0.0136     0.0000     0.0136     0.0000     0.0000     0.0000     0.0000     0.0000 </r>
        <r>    -2.1071     0.0000     0.1074     0.0000     0.1074     0.0000     0.0000     0.0000     0.0000     0.0000 </r>
        <r>    -1.9907     0.0000     0.4427     0.0000     0.4427     0.0000     0.0000     0.0000     0.0000     0.0000 </r>
        <r>    -1.8742     0.0000     0.9598     0.0000     0.9598     0.0000     0.0000     0.0000     0.0000     0.0000 </r>
        <r>    -1.7578     0.0000     1.0959     0.0000     1.0959     0.0000     0.0000     0.0000     0.0000     0.0000 </r>
        <r>    -1.6413     0.0000     0.6593     0.0000     0.6593     0.0000     0.0000     0.0000     0.0000     0.0000 </r>
        <r>    -1.5249     0.0000     0.2087     0.0000     0.2087     0.0000     0.0000     0.0000     0.0000     0.0000 </r>
        <r>    -1.4084     0.0000     0.0347     0.0000     0.0347     0.0000     0.0000     0.0000     0.0000     0.0000 </r>
        <r>    -1.2920     0.0000     0.0030     0.0000     0.0030     0.0000     0.0000     0.0000     0.0000     0.0000 </r>
        <r>    -1.1755     0.0000     0.0001     0.0000     0.0001     0.0000     0.0000     0.0000     0.0000     0.0000 </r>
        <r>    -1.0590     0.0000     0.0000     0.0000     0.0000     0.0000     0.0000     0.0000     0.0000     0.0000 </r>
        <r>    -0.9426     0.0000     0.0000     0.0000     0.0000     0.0000     0.0000     0.0000     0.0000     0.0000 </r>
        <r>    -0.8261     0.0000     0.0000     0.0000     0.0000     0.0000     0.0000     0.0000     0.0000     0.0000 </r>
        <r>    -0.7097     0.0000     0.0000     0.0000     0.0000     0.0000     0.0000     0.0000     0.0000     0.0000 </r>
        <r>    -0.5932     0.0004     0.0000     0.0004     0.0000     0.0000     0.0000     0.0000     0.0000     0.0000 </r>
        <r>    -0.4768     0.0027     0.0000     0.0027     0.0000     0.0000     0.0000     0.0000     0.0000     0.0000 </r>
        <r>    -0.3603     0.0099     0.0000     0.0097     0.0000     0.0000     0.0000     0.0000     0.0000     0.0000 </r>
        <r>    -0.2439     0.0188     0.0000     0.0185     0.0000     0.0000     0.0000     0.0000     0.0000     0.0000 </r>
        <r>    -0.1274     0.0189     0.0000     0.0185     0.0000     0.0000     0.0000     0.0000     0.0000     0.0000 </r>
        <r>    -0.0110     0.0100     0.0000     0.0098     0.0000     0.0000     0.0000     0.0000     0.0000     0.0000 </r>
        <r>     0.1055     0.0028     0.0000     0.0027     0.0000     0.0000     0.0000     0.0000     0.0000     0.0000 </r>
        <r>     0.2219     0.0004     0.0000     0.0004     0.0000     0.0000     0.0000     0.0000     0.0000     0.0000 </r>
        <r>     0.3384     0.0000     0.0000     0.0000     0.0000     0.0000     0.0000     0.0000     0.0000     0.0000 </r>
        <r>     0.4549     0.0000     0.0000     0.0000     0.0000     0.0000     0.0000     0.0000     0.0000     0.0000 </r>
        <r>     0.5713     0.0000     0.0000     0.0000     0.0000     0.0000     0.0000     0.0000     0.0000     0.0000 </r>
        <r>     0.6878     0.0000     0.0000     0.0000     0.0000     0.0000     0.0000     0.0000     0.0000     0.0000 </r>
        <r>     0.8042     0.0000     0.0000     0.0000     0.0000     0.0000     0.0000     0.0000     0.0000     0.0000 </r>
        <r>     0.9207     0.0000     0.0000     0.0000     0.0000     0.0000     0.0000     0.0000     0.0000     0.0000 </r>
        <r>     1.0371     0.0000     0.0000     0.0000     0.0000     0.0000     0.0000     0.0000     0.0000     0.0000 </r>
        <r>     1.1536     0.0000     0.0000     0.0000     0.0000     0.0000     0.0000     0.0000     0.0000     0.0000 </r>
        <r>     1.2700     0.0001     0.0000     0.0000     0.0000     0.0000     0.0000     0.0000     0.0000     0.0000 </r>
        <r>     1.3865     0.0015     0.0000     0.0000     0.0000     0.0000     0.0000     0.0000     0.0000     0.0000 </r>
        <r>     1.5029     0.0092     0.0001     0.0003     0.0001     0.0000     0.0000     0.0000     0.0000     0.0000 </r>
        <r>     1.6194     0.0298     0.0005     0.0014     0.0005     0.0000     0.0000     0.0000     0.0000     0.0000 </r>
        <r>     1.7359     0.0534     0.0021     0.0045     0.0021     0.0000     0.0000     0.0000     0.0000     0.0000 </r>
        <r>     1.8523     0.0580     0.0046     0.0113     0.0046     0.0000     0.0000     0.0000     0.0000     0.0000 </r>
        <r>     1.9688     0.0454     0.0054     0.0177     0.0054     0.0000     0.0000     0.0000     0.0000     0.0000 </r>
        <r>     2.0852     0.0276     0.0034     0.0154     0.0034     0.0000     0.0000     0.0000     0.0000     0.0000 </r>
        <r>     2.2017     0.0113     0.0011     0.0072     0.0011     0.0000     0.0000     0.0000     0.0000     0.0000 </r>
        <r>     2.3181     0.0027     0.0002     0.0018     0.0002     0.0000     0.0000     0.0000     0.0000     0.0000 </r>
        <r>     2.4346     0.0003     0.0000     0.0002     0.0000     0.0000     0.0000     0.0000     0.0000     0.0000 </r>
        <r>     2.5510     0.0000     0.0000     0.0000     0.0000     0.0000     0.0000     0.0000     0.0000     0.0000 </r>
        <r>     2.6675     0.0000     0.0000     0.0000     0.0000     0.0000     0.0000     0.0000     0.0000     0.0000 </r>
        <r>     2.7839     0.0000     0.0000     0.0000     0.0000     0.0000     0.0000     0.0000     0.0000     0.0000 </r>
        <r>     2.9004     0.0000     0.0000     0.0000     0.0000     0.0000     0.0000     0.0000     0.0000     0.0000 </r>
        <r>     3.0168     0.0000     0.0000     0.0000     0.0000     0.0000     0.0000     0.0000     0.0000     0.0000 </r>
        <r>     3.1333     0.0000     0.0000     0.0000     0.0000     0.0000     0.0000     0.0000     0.0000     0.0000 </r>
        <r>     3.2498     0.0000     0.0000     0.0000     0.0000     0.0000     0.0000     0.0000     0.0000     0.0000 </r>
        <r>     3.3662     0.0000     0.0000     0.0000     0.0000     0.0000     0.0000     0.0000     0.0000     0.0000 </r>
        <r>     3.4827     0.0000     0.0000     0.0000     0.0000     0.0000     0.0000     0.0000     0.0000     0.0000 </r>
        <r>     3.5991     0.0000     0.0000     0.0000     0.0000     0.0000     0.0000     0.0000     0.0000     0.0000 </r>
        <r>     3.7156     0.0000     0.0000     0.0000     0.0000     0.0000     0.0000     0.0000     0.0000     0.0000 </r>
        <r>     3.8320     0.0000     0.0000     0.0000     0.0000     0.0000     0.0000     0.0000     0.0000     0.0000 </r>
        <r>     3.9485     0.0000     0.0000     0.0000     0.0000     0.0000     0.0000     0.0000     0.0000     0.0000 </r>
       </set>
      </set>
      <set comment="ion 2">
       <set comment="spin 1">
        <r>   -30.9878     0.0000     0.0000     0.0000     0.0000     0.0000     0.0000     0.0000     0.0000     0.0000 </r>
        <r>   -30.8713     0.0000     0.0000     0.0000     0.0000     0.0000     0.0000     0.0000     0.0000     0.0000 </r>
        <r>   -30.7549     0.0000     0.0000     0.0000     0.0000     0.0000     0.0000     0.0000     0.0000     0.0000 </r>
        <r>   -30.6384     0.0000     0.0000     0.0000     0.0000     0.0000     0.0000     0.0000     0.0000     0.0000 </r>
        <r>   -30.5220     0.0000     0.0000     0.0000     0.0000     0.0000     0.0000     0.0000     0.0000     0.0000 </r>
        <r>   -30.4055     0.0000     0.0000     0.0000     0.0000     0.0000     0.0000     0.0000     0.0000     0.0000 </r>
        <r>   -30.2891     0.0000     0.0000     0.0000     0.0000     0.0000     0.0000     0.0000     0.0000     0.0000 </r>
        <r>   -30.1726     0.0000     0.0000     0.0000     0.0000     0.0000     0.0000     0.0000     0.0000     0.0000 </r>
        <r>   -30.0562     0.0000     0.0000     0.0000     0.0000     0.0000     0.0000     0.0000     0.0000     0.0000 </r>
        <r>   -29.9397     0.0000     0.0000     0.0000     0.0000     0.0000     0.0000     0.0000     0.0000     0.0000 </r>
        <r>   -29.8232     0.0000     0.0000     0.0000     0.0000     0.0000     0.0000     0.0000     0.0000     0.0000 </r>
        <r>   -29.7068     0.0000     0.0000     0.0000     0.0000     0.0000     0.0000     0.0000     0.0000     0.0000 </r>
        <r>   -29.5903     0.0000     0.0000     0.0000     0.0000     0.0000     0.0000     0.0000     0.0000     0.0000 </r>
        <r>   -29.4739     0.0008     0.0000     0.0006     0.0000     0.0000     0.0000     0.0000     0.0000     0.0000 </r>
        <r>   -29.3574     0.0116     0.0000     0.0091     0.0000     0.0000     0.0000     0.0000     0.0000     0.0000 </r>
        <r>   -29.2410     0.0896     0.0000     0.0699     0.0000     0.0000     0.0000     0.0000     0.0000     0.0000 </r>
        <r>   -29.1245     0.3617     0.0000     0.2823     0.0000     0.0000     0.0000     0.0000     0.0000     0.0000 </r>
        <r>   -29.0081     0.7677     0.0000     0.5992     0.0000     0.0000     0.0000     0.0000     0.0000     0.0000 </r>
        <r>   -28.8916     0.8583     0.0000     0.6699     0.0000     0.0000     0.0000     0.0000     0.0000     0.0000 </r>
        <r>   -28.7752     0.5056     0.0000     0.3946     0.0000     0.0000     0.0000     0.0000     0.0000     0.0000 </r>
        <r>   -28.6587     0.1567     0.0000     0.1223     0.0000     0.0000     0.0000     0.0000     0.0000     0.0000 </r>
[...]
        <r>    -9.5602     0.0000     0.0000     0.0000     0.0000     0.0000     0.0000     0.0000     0.0000     0.0000 </r>
        <r>    -9.4438     0.0000     0.0000     0.0000     0.0000     0.0000     0.0000     0.0000     0.0000     0.0000 </r>
        <r>    -9.3273     0.0001     0.0000     0.0002     0.0000     0.0000     0.0000     0.0000     0.0000     0.0000 </r>
        <r>    -9.2108     0.0023     0.0000     0.0035     0.0000     0.0000     0.0000     0.0000     0.0000     0.0000 </r>
        <r>    -9.0944     0.0268     0.0000     0.0407     0.0000     0.0000     0.0000     0.0000     0.0000     0.0000 </r>
        <r>    -8.9779     0.1654     0.0000     0.2510     0.0000     0.0000     0.0000     0.0000     0.0000     0.0000 </r>
        <r>    -8.8615     0.5350     0.0000     0.8120     0.0000     0.0000     0.0000     0.0000     0.0000     0.0000 </r>
        <r>    -8.7450     0.9104     0.0000     1.3818     0.0000     0.0000     0.0000     0.0000     0.0000     0.0000 </r>
        <r>    -8.6286     0.8163     0.0000     1.2390     0.0000     0.0000     0.0000     0.0000     0.0000     0.0000 </r>
        <r>    -8.5121     0.3855     0.0000     0.5851     0.0000     0.0000     0.0000     0.0000     0.0000     0.0000 </r>
        <r>    -8.3957     0.0957     0.0000     0.1453     0.0000     0.0000     0.0000     0.0000     0.0000     0.0000 </r>
        <r>    -8.2792     0.0125     0.0000     0.0189     0.0000     0.0000     0.0000     0.0000     0.0000     0.0000 </r>
        <r>    -8.1628     0.0008     0.0000     0.0013     0.0000     0.0000     0.0000     0.0000     0.0000     0.0000 </r>
        <r>    -8.0463     0.0000     0.0000     0.0000     0.0000     0.0000     0.0000     0.0000     0.0000     0.0000 </r>
        <r>    -7.9298     0.0000     0.0000     0.0000     0.0000     0.0000     0.0000     0.0000     0.0000     0.0000 </r>
        <r>    -7.8134     0.0000     0.0000     0.0000     0.0000     0.0000     0.0000     0.0000     0.0000     0.0000 </r>
        <r>    -7.6969     0.0000     0.0000     0.0000     0.0000     0.0000     0.0000     0.0000     0.0000     0.0000 </r>
        <r>    -7.5805     0.0000     0.0000     0.0000     0.0000     0.0000     0.0000     0.0000     0.0000     0.0000 </r>
        <r>    -7.4640     0.0000     0.0000     0.0000     0.0000     0.0000     0.0000     0.0000     0.0000     0.0000 </r>
        <r>    -7.3476     0.0000     0.0000     0.0000     0.0000     0.0000     0.0000     0.0000     0.0000     0.0000 </r>
        <r>    -7.2311     0.0000     0.0000     0.0000     0.0000     0.0000     0.0000     0.0000     0.0000     0.0000 </r>
        <r>    -7.1147     0.0000     0.0000     0.0000     0.0000     0.0000     0.0000     0.0000     0.0000     0.0000 </r>
        <r>    -6.9982     0.0000     0.0000     0.0000     0.0000     0.0000     0.0000     0.0000     0.0000     0.0000 </r>
        <r>    -6.8818     0.0000     0.0000     0.0000     0.0000     0.0000     0.0000     0.0000     0.0000     0.0000 </r>
        <r>    -6.7653     0.0000     0.0000     0.0000     0.0000     0.0000     0.0000     0.0000     0.0000     0.0000 </r>
        <r>    -6.6489     0.0000     0.0000     0.0000     0.0000     0.0000     0.0000     0.0000     0.0000     0.0000 </r>
        <r>    -6.5324     0.0000     0.0000     0.0000     0.0000     0.0000     0.0000     0.0000     0.0000     0.0000 </r>
        <r>    -6.4159     0.0000     0.0000     0.0000     0.0000     0.0000     0.0000     0.0000     0.0000     0.0000 </r>
        <r>    -6.2995     0.0000     0.0000     0.0000     0.0000     0.0000     0.0000     0.0000     0.0000     0.0000 </r>
        <r>    -6.1830     0.0000     0.0000     0.0000     0.0000     0.0000     0.0000     0.0000     0.0000     0.0000 </r>
        <r>    -6.0666     0.0000     0.0000     0.0000     0.0000     0.0000     0.0000     0.0000     0.0000     0.0000 </r>
        <r>    -5.9501     0.0000     0.0000     0.0000     0.0000     0.0000     0.0000     0.0000     0.0000     0.0000 </r>
        <r>    -5.8337     0.0000     0.0000     0.0000     0.0000     0.0000     0.0000     0.0000     0.0000     0.0000 </r>
        <r>    -5.7172     0.0000     0.0000     0.0000     0.0000     0.0000     0.0000     0.0000     0.0000     0.0000 </r>
        <r>    -5.6008     0.0000     0.0000     0.0000     0.0000     0.0000     0.0000     0.0000     0.0000     0.0000 </r>
        <r>    -5.4843     0.0000     0.0000     0.0000     0.0000     0.0000     0.0000     0.0000     0.0000     0.0000 </r>
        <r>    -5.3679     0.0000     0.0000     0.0000     0.0000     0.0000     0.0000     0.0000     0.0000     0.0000 </r>
        <r>    -5.2514     0.0000     0.0000     0.0000     0.0000     0.0000     0.0000     0.0000     0.0000     0.0000 </r>
        <r>    -5.1349     0.0000     0.0000     0.0000     0.0000     0.0000     0.0000     0.0000     0.0000     0.0000 </r>
        <r>    -5.0185     0.0000     0.0000     0.0000     0.0000     0.0000     0.0000     0.0000     0.0000     0.0000 </r>
        <r>    -4.9020     0.0000     0.0000     0.0000     0.0000     0.0000     0.0000     0.0000     0.0000     0.0000 </r>
        <r>    -4.7856     0.0000     0.0000     0.0000     0.0000     0.0000     0.0000     0.0000     0.0000     0.0000 </r>
        <r>    -4.6691     0.0000     0.0000     0.0000     0.0000     0.0000     0.0000     0.0000     0.0000     0.0000 </r>
        <r>    -4.5527     0.0000     0.0000     0.0000     0.0000     0.0000     0.0000     0.0000     0.0000     0.0000 </r>
        <r>    -4.4362     0.0000     0.0000     0.0000     0.0000     0.0000     0.0000     0.0000     0.0000     0.0000 </r>
        <r>    -4.3198     0.0000     0.0000     0.0000     0.0000     0.0000     0.0000     0.0000     0.0000     0.0000 </r>
        <r>    -4.2033     0.0000     0.0000     0.0000     0.0000     0.0000     0.0000     0.0000     0.0000     0.0000 </r>
        <r>    -4.0869     0.0000     0.0000     0.0000     0.0000     0.0000     0.0000     0.0000     0.0000     0.0000 </r>
        <r>    -3.9704     0.0000     0.0000     0.0000     0.0000     0.0000     0.0000     0.0000     0.0000     0.0000 </r>
        <r>    -3.8540     0.0000     0.0000     0.0000     0.0000     0.0000     0.0000     0.0000     0.0000     0.0000 </r>
        <r>    -3.7375     0.0000     0.0000     0.0000     0.0000     0.0000     0.0000     0.0000     0.0000     0.0000 </r>
        <r>    -3.6210     0.0000     0.0000     0.0000     0.0000     0.0000     0.0000     0.0000     0.0000     0.0000 </r>
        <r>    -3.5046     0.0000     0.0000     0.0000     0.0000     0.0000     0.0000     0.0000     0.0000     0.0000 </r>
        <r>    -3.3881     0.0000     0.0000     0.0000     0.0000     0.0000     0.0000     0.0000     0.0000     0.0000 </r>
        <r>    -3.2717     0.0000     0.0000     0.0000     0.0000     0.0000     0.0000     0.0000     0.0000     0.0000 </r>
        <r>    -3.1552     0.0000     0.0000     0.0000     0.0000     0.0000     0.0000     0.0000     0.0000     0.0000 </r>
        <r>    -3.0388     0.0000     0.0000     0.0000     0.0000     0.0000     0.0000     0.0000     0.0000     0.0000 </r>
        <r>    -2.9223     0.0000     0.0000     0.0000     0.0000     0.0000     0.0000     0.0000     0.0000     0.0000 </r>
        <r>    -2.8059     0.0000     0.0000     0.0000     0.0000     0.0000     0.0000     0.0000     0.0000     0.0000 </r>
        <r>    -2.6894     0.0000     0.0000     0.0000     0.0000     0.0000     0.0000     0.0000     0.0000     0.0000 </r>
        <r>    -2.5730     0.0000     0.0000     0.0000     0.0000     0.0000     0.0000     0.0000     0.0000     0.0000 </r>
        <r>    -2.4565     0.0000     0.0000     0.0000     0.0000     0.0000     0.0000     0.0000     0.0000     0.0000 </r>
        <r>    -2.3400     0.0000     0.0014     0.0000     0.0014     0.0000     0.0000     0.0000     0.0000     0.0000 </r>
        <r>    -2.2236     0.0000     0.0208     0.0000     0.0208     0.0000     0.0000     0.0000     0.0000     0.0000 </r>
        <r>    -2.1071     0.0000     0.1637     0.0000     0.1637     0.0000     0.0000     0.0000     0.0000     0.0000 </r>
        <r>    -1.9907     0.0000     0.6751     0.0000     0.6751     0.0000     0.0000     0.0000     0.0000     0.0000 </r>
        <r>    -1.8742     0.0000     1.4636     0.0000     1.4636     0.0000     0.0000     0.0000     0.0000     0.0000 </r>
        <r>    -1.7578     0.0000     1.6712     0.0000     1.6712     0.0000     0.0000     0.0000     0.0000     0.0000 </r>
        <r>    -1.6413     0.0000     1.0053     0.0000     1.0053     0.0000     0.0000     0.0000     0.0000     0.0000 </r>
        <r>    -1.5249     0.0000     0.3182     0.0000     0.3182     0.0000     0.0000     0.0000     0.0000     0.0000 </r>
        <r>    -1.4084     0.0000     0.0529     0.0000     0.0529     0.0000     0.0000     0.0000     0.0000     0.0000 </r>
        <r>    -1.2920     0.0000     0.0046     0.0000     0.0046     0.0000     0.0000     0.0000     0.0000     0.0000 </r>
        <r>    -1.1755     0.0000     0.0002     0.0000     0.0002     0.0000     0.0000     0.0000     0.0000     0.0000 </r>
        <r>    -1.0590     0.0000     0.0000     0.0000     0.0000     0.0000     0.0000     0.0000     0.0000     0.0000 </r>
        <r>    -0.9426     0.0000     0.0000     0.0000     0.0000     0.0000     0.0000     0.0000     0.0000     0.0000 </r>
        <r>    -0.8261     0.0000     0.0000     0.0000     0.0000     0.0000     0.0000     0.0000     0.0000     0.0000 </r>
        <r>    -0.7097     0.0001     0.0000     0.0001     0.0000     0.0000     0.0000     0.0000     0.0000     0.0000 </r>
        <r>    -0.5932     0.0009     0.0000     0.0008     0.0000     0.0000     0.0000     0.0000     0.0000     0.0000 </r>
        <r>    -0.4768     0.0060     0.0000     0.0058     0.0000     0.0000     0.0000     0.0000     0.0000     0.0000 </r>
        <r>    -0.3603     0.0219     0.0000     0.0210     0.0000     0.0000     0.0000     0.0000     0.0000     0.0000 </r>
        <r>    -0.2439     0.0418     0.0000     0.0400     0.0000     0.0000     0.0000     0.0000     0.0000     0.0000 </r>
        <r>    -0.1274     0.0420     0.0000     0.0402     0.0000     0.0000     0.0000     0.0000     0.0000     0.0000 </r>
        <r>    -0.0110     0.0222     0.0000     0.0213     0.0000     0.0000     0.0000     0.0000     0.0000     0.0000 </r>
        <r>     0.1055     0.0062     0.0000     0.0059     0.0000     0.0000     0.0000     0.0000     0.0000     0.0000 </r>
        <r>     0.2219     0.0009     0.0000     0.0009     0.0000     0.0000     0.0000     0.0000     0.0000     0.0000 </r>
        <r>     0.3384     0.0001     0.0000     0.0001     0.0000     0.0000     0.0000     0.0000     0.0000     0.0000 </r>
        <r>     0.4549     0.0000     0.0000     0.0000     0.0000     0.0000     0.0000     0.0000     0.0000     0.0000 </r>
        <r>     0.5713     0.0000     0.0000     0.0000     0.0000     0.0000     0.0000     0.0000     0.0000     0.0000 </r>
        <r>     0.6878     0.0000     0.0000     0.0000     0.0000     0.0000     0.0000     0.0000     0.0000     0.0000 </r>
        <r>     0.8042     0.0000     0.0000     0.0000     0.0000     0.0000     0.0000     0.0000     0.0000     0.0000 </r>
        <r>     0.9207     0.0000     0.0000     0.0000     0.0000     0.0000     0.0000     0.0000     0.0000     0.0000 </r>
        <r>     1.0371     0.0000     0.0000     0.0000     0.0000     0.0000     0.0000     0.0000     0.0000     0.0000 </r>
        <r>     1.1536     0.0000     0.0000     0.0000     0.0000     0.0000     0.0000     0.0000     0.0000     0.0000 </r>
        <r>     1.2700     0.0000     0.0000     0.0000     0.0000     0.0000     0.0000     0.0000     0.0000     0.0000 </r>
        <r>     1.3865     0.0002     0.0001     0.0000     0.0001     0.0000     0.0000     0.0000     0.0000     0.0000 </r>
        <r>     1.5029     0.0010     0.0020     0.0000     0.0020     0.0000     0.0000     0.0000     0.0000     0.0000 </r>
        <r>     1.6194     0.0037     0.0158     0.0002     0.0158     0.0000     0.0000     0.0000     0.0000     0.0000 </r>
        <r>     1.7359     0.0091     0.0674     0.0003     0.0674     0.0000     0.0000     0.0000     0.0000     0.0000 </r>
        <r>     1.8523     0.0172     0.1506     0.0002     0.1506     0.0000     0.0000     0.0000     0.0000     0.0000 </r>
        <r>     1.9688     0.0235     0.1772     0.0001     0.1772     0.0000     0.0000     0.0000     0.0000     0.0000 </r>
        <r>     2.0852     0.0196     0.1099     0.0000     0.1099     0.0000     0.0000     0.0000     0.0000     0.0000 </r>
        <r>     2.2017     0.0091     0.0359     0.0000     0.0359     0.0000     0.0000     0.0000     0.0000     0.0000 </r>
        <r>     2.3181     0.0022     0.0061     0.0000     0.0061     0.0000     0.0000     0.0000     0.0000     0.0000 </r>
        <r>     2.4346     0.0003     0.0006     0.0000     0.0006     0.0000     0.0000     0.0000     0.0000     0.0000 </r>
        <r>     2.5510     0.0000     0.0000     0.0000     0.0000     0.0000     0.0000     0.0000     0.0000     0.0000 </r>
        <r>     2.6675     0.0000     0.0000     0.0000     0.0000     0.0000     0.0000     0.0000     0.0000     0.0000 </r>
        <r>     2.7839     0.0000     0.0000     0.0000     0.0000     0.0000     0.0000     0.0000     0.0000     0.0000 </r>
        <r>     2.9004     0.0000     0.0000     0.0000     0.0000     0.0000     0.0000     0.0000     0.0000     0.0000 </r>
        <r>     3.0168     0.0000     0.0000     0.0000     0.0000     0.0000     0.0000     0.0000     0.0000     0.0000 </r>
        <r>     3.1333     0.0000     0.0000     0.0000     0.0000     0.0000     0.0000     0.0000     0.0000     0.0000 </r>
        <r>     3.2498     0.0000     0.0000     0.0000     0.0000     0.0000     0.0000     0.0000     0.0000     0.0000 </r>
        <r>     3.3662     0.0000     0.0000     0.0000     0.0000     0.0000     0.0000     0.0000     0.0000     0.0000 </r>
        <r>     3.4827     0.0000     0.0000     0.0000     0.0000     0.0000     0.0000     0.0000     0.0000     0.0000 </r>
        <r>     3.5991     0.0000     0.0000     0.0000     0.0000     0.0000     0.0000     0.0000     0.0000     0.0000 </r>
        <r>     3.7156     0.0000     0.0000     0.0000     0.0000     0.0000     0.0000     0.0000     0.0000     0.0000 </r>
        <r>     3.8320     0.0000     0.0000     0.0000     0.0000     0.0000     0.0000     0.0000     0.0000     0.0000 </r>
        <r>     3.9485     0.0000     0.0000     0.0000     0.0000     0.0000     0.0000     0.0000     0.0000     0.0000 </r>
       </set>
      </set>
     </set>
    </array>
   </partial>
  </dos>
  <projected>
   <eigenvalues>
    <array>
     <dimension dim="1">band</dimension>
     <dimension dim="2">kpoint</dimension>
     <dimension dim="3">spin</dimension>
     <field>eigene</field>
     <field>occ</field>
     <set>
      <set comment="spin 1">
       <set comment="kpoint 1">
        <r>  -28.9878    1.0000 </r>
        <r>  -13.7639    1.0000 </r>
        <r>  -11.4654    1.0000 </r>
        <r>  -11.4654    1.0000 </r>
        <r>   -8.7649    1.0000 </r>
        <r>   -1.8501    0.0000 </r>
        <r>   -1.8501    0.0000 </r>
        <r>   -0.2430    0.0000 </r>
        <r>    1.7134    0.0000 </r>
        <r>    1.8819    0.0000 </r>
        <r>    1.8819    0.0000 </r>
        <r>    1.9485    0.0000 </r>
       </set>
      </set>
     </set>
    </array>
   </eigenvalues>
   <array>
    <dimension dim="1">ion</dimension>
    <dimension dim="2">band</dimension>
    <dimension dim="3">kpoint</dimension>
    <dimension dim="4">spin</dimension>
    <field>    s</field>
    <field>   py</field>
    <field>   pz</field>
    <field>   px</field>
    <field>  dxy</field>
    <field>  dyz</field>
    <field>  dz2</field>
    <field>  dxz</field>
    <field>x2-y2</field>
    <set>
     <set comment="spin1">
      <set comment="kpoint 1">
       <set comment="band 1">
        <r>  0.6580  0.0000  0.0985  0.0000  0.0000  0.0000  0.0000  0.0000  0.0000 </r>
        <r>  0.1619  0.0000  0.1263  0.0000  0.0000  0.0000  0.0000  0.0000  0.0000 </r>
       </set>
       <set comment="band 2">
        <r>  0.1682  0.0000  0.4487  0.0000  0.0000  0.0000  0.0000  0.0000  0.0000 </r>
        <r>  0.1873  0.0000  0.0179  0.0000  0.0000  0.0000  0.0000  0.0000  0.0000 </r>
       </set>
       <set comment="band 3">
        <r>  0.0000  0.0869  0.0000  0.4594  0.0000  0.0000  0.0000  0.0000  0.0000 </r>
        <r>  0.0000  0.0249  0.0000  0.1318  0.0000  0.0000  0.0000  0.0000  0.0000 </r>
       </set>
       <set comment="band 4">
        <r>  0.0000  0.4594  0.0000  0.0869  0.0000  0.0000  0.0000  0.0000  0.0000 </r>
        <r>  0.0000  0.1318  0.0000  0.0249  0.0000  0.0000  0.0000  0.0000  0.0000 </r>
       </set>
       <set comment="band 5">
        <r>  0.0010  0.0000  0.1353  0.0000  0.0000  0.0000  0.0000  0.0000  0.0000 </r>
        <r>  0.1718  0.0000  0.2608  0.0000  0.0000  0.0000  0.0000  0.0000  0.0000 </r>
       </set>
       <set comment="band 6">
        <r>  0.0000  0.0119  0.0000  0.1934  0.0000  0.0000  0.0000  0.0000  0.0000 </r>
        <r>  0.0000  0.0181  0.0000  0.2949  0.0000  0.0000  0.0000  0.0000  0.0000 </r>
       </set>
       <set comment="band 7">
        <r>  0.0000  0.1934  0.0000  0.0119  0.0000  0.0000  0.0000  0.0000  0.0000 </r>
        <r>  0.0000  0.2949  0.0000  0.0181  0.0000  0.0000  0.0000  0.0000  0.0000 </r>
       </set>
       <set comment="band 8">
        <r>  0.0037  0.0000  0.0037  0.0000  0.0000  0.0000  0.0000  0.0000  0.0000 </r>
        <r>  0.0083  0.0000  0.0079  0.0000  0.0000  0.0000  0.0000  0.0000  0.0000 </r>
       </set>
       <set comment="band 9">
        <r>  0.0092  0.0000  0.0003  0.0000  0.0000  0.0000  0.0000  0.0000  0.0000 </r>
        <r>  0.0010  0.0000  0.0000  0.0000  0.0000  0.0000  0.0000  0.0000  0.0000 </r>
       </set>
       <set comment="band 10">
        <r>  0.0000  0.0008  0.0000  0.0002  0.0000  0.0000  0.0000  0.0000  0.0000 </r>
        <r>  0.0000  0.0268  0.0000  0.0061  0.0000  0.0000  0.0000  0.0000  0.0000 </r>
       </set>
       <set comment="band 11">
        <r>  0.0000  0.0002  0.0000  0.0008  0.0000  0.0000  0.0000  0.0000  0.0000 </r>
        <r>  0.0000  0.0061  0.0000  0.0268  0.0000  0.0000  0.0000  0.0000  0.0000 </r>
       </set>
       <set comment="band 12">
        <r>  0.0048  0.0000  0.0032  0.0000  0.0000  0.0000  0.0000  0.0000  0.0000 </r>
        <r>  0.0040  0.0000  0.0000  0.0000  0.0000  0.0000  0.0000  0.0000  0.0000 </r>
       </set>
      </set>
     </set>
    </set>
   </array>
  </projected>
 </calculation>
 <structure name="finalpos" >
  <crystal>
   <varray name="basis" >
    <v>       8.00000000       0.00000000       0.00000000 </v>
    <v>       0.00000000       8.00000000       0.00000000 </v>
    <v>       0.00000000       0.00000000       8.00000000 </v>
   </varray>
   <i name="volume">    512.00000000 </i>
   <varray name="rec_basis" >
    <v>       0.12500000       0.00000000       0.00000000 </v>
    <v>       0.00000000       0.12500000       0.00000000 </v>
    <v>       0.00000000       0.00000000       0.12500000 </v>
   </varray>
  </crystal>
  <varray name="positions" >
   <v>       0.00000000       0.00000000       0.00000000 </v>
   <v>       0.00000000       0.00000000       0.14287500 </v>
  </varray>
  <varray name="selective"  type="logical" >
   <v type="logical" >  F  F  T </v>
   <v type="logical" >  F  F  T </v>
  </varray>
  <nose>
   <v>      -3.00000000       0.00000000       0.00010000       0.00010000 </v>
  </nose>
 </structure>
</modeling>
