   1   1   0   0
  0.5120000E+03  0.8000000E-09  0.8000000E-09  0.8000000E-09  0.5000000E-15
  1.000000000000000E-004
  CAR 
 O atom                                  
      3.14838145    -25.12940064  301     -8.90115885      1.00000000
    -25.129  0.0000E+00  0.0000E+00
    -25.035  0.0000E+00  0.0000E+00
    -24.941  0.0000E+00  0.0000E+00
    -24.847  0.0000E+00  0.0000E+00
    -24.752  0.0000E+00  0.0000E+00
    -24.658  0.0000E+00  0.0000E+00
    -24.564  0.0000E+00  0.0000E+00
    -24.470  0.0000E+00  0.0000E+00
    -24.375  0.0000E+00  0.0000E+00
    -24.281  0.0000E+00  0.0000E+00
    -24.187  0.0000E+00  0.0000E+00
    -24.093  0.0000E+00  0.0000E+00
    -23.998  0.0000E+00  0.0000E+00
    -23.904  0.0000E+00  0.0000E+00
    -23.810  0.2122E+02  0.2000E+01
    -23.716  0.0000E+00  0.2000E+01
    -23.621  0.0000E+00  0.2000E+01
    -23.527  0.0000E+00  0.2000E+01
    -23.433  0.0000E+00  0.2000E+01
    -23.338  0.0000E+00  0.2000E+01
    -23.244  0.0000E+00  0.2000E+01
    -23.150  0.0000E+00  0.2000E+01
    -23.056  0.0000E+00  0.2000E+01
    -22.961  0.0000E+00  0.2000E+01
    -22.867  0.0000E+00  0.2000E+01
    -22.773  0.0000E+00  0.2000E+01
    -22.679  0.0000E+00  0.2000E+01
    -22.584  0.0000E+00  0.2000E+01
    -22.490  0.0000E+00  0.2000E+01
    -22.396  0.0000E+00  0.2000E+01
    -22.302  0.0000E+00  0.2000E+01
    -22.207  0.0000E+00  0.2000E+01
    -22.113  0.0000E+00  0.2000E+01
    -22.019  0.0000E+00  0.2000E+01
    -21.925  0.0000E+00  0.2000E+01
    -21.830  0.0000E+00  0.2000E+01
    -21.736  0.0000E+00  0.2000E+01
    -21.642  0.0000E+00  0.2000E+01
    -21.548  0.0000E+00  0.2000E+01
    -21.453  0.0000E+00  0.2000E+01
    -21.359  0.0000E+00  0.2000E+01
    -21.265  0.0000E+00  0.2000E+01
    -21.171  0.0000E+00  0.2000E+01
    -21.076  0.0000E+00  0.2000E+01
    -20.982  0.0000E+00  0.2000E+01
    -20.888  0.0000E+00  0.2000E+01
    -20.793  0.0000E+00  0.2000E+01
    -20.699  0.0000E+00  0.2000E+01
    -20.605  0.0000E+00  0.2000E+01
    -20.511  0.0000E+00  0.2000E+01
    -20.416  0.0000E+00  0.2000E+01
    -20.322  0.0000E+00  0.2000E+01
    -20.228  0.0000E+00  0.2000E+01
    -20.134  0.0000E+00  0.2000E+01
    -20.039  0.0000E+00  0.2000E+01
    -19.945  0.0000E+00  0.2000E+01
    -19.851  0.0000E+00  0.2000E+01
    -19.757  0.0000E+00  0.2000E+01
    -19.662  0.0000E+00  0.2000E+01
    -19.568  0.0000E+00  0.2000E+01
    -19.474  0.0000E+00  0.2000E+01
    -19.380  0.0000E+00  0.2000E+01
    -19.285  0.0000E+00  0.2000E+01
    -19.191  0.0000E+00  0.2000E+01
    -19.097  0.0000E+00  0.2000E+01
    -19.003  0.0000E+00  0.2000E+01
    -18.908  0.0000E+00  0.2000E+01
    -18.814  0.0000E+00  0.2000E+01
    -18.720  0.0000E+00  0.2000E+01
    -18.626  0.0000E+00  0.2000E+01
    -18.531  0.0000E+00  0.2000E+01
    -18.437  0.0000E+00  0.2000E+01
    -18.343  0.0000E+00  0.2000E+01
    -18.248  0.0000E+00  0.2000E+01
    -18.154  0.0000E+00  0.2000E+01
    -18.060  0.0000E+00  0.2000E+01
    -17.966  0.0000E+00  0.2000E+01
    -17.871  0.0000E+00  0.2000E+01
    -17.777  0.0000E+00  0.2000E+01
    -17.683  0.0000E+00  0.2000E+01
    -17.589  0.0000E+00  0.2000E+01
    -17.494  0.0000E+00  0.2000E+01
    -17.400  0.0000E+00  0.2000E+01
    -17.306  0.0000E+00  0.2000E+01
    -17.212  0.0000E+00  0.2000E+01
    -17.117  0.0000E+00  0.2000E+01
    -17.023  0.0000E+00  0.2000E+01
    -16.929  0.0000E+00  0.2000E+01
    -16.835  0.0000E+00  0.2000E+01
    -16.740  0.0000E+00  0.2000E+01
    -16.646  0.0000E+00  0.2000E+01
    -16.552  0.0000E+00  0.2000E+01
    -16.458  0.0000E+00  0.2000E+01
    -16.363  0.0000E+00  0.2000E+01
    -16.269  0.0000E+00  0.2000E+01
    -16.175  0.0000E+00  0.2000E+01
    -16.081  0.0000E+00  0.2000E+01
    -15.986  0.0000E+00  0.2000E+01
    -15.892  0.0000E+00  0.2000E+01
    -15.798  0.0000E+00  0.2000E+01
    -15.703  0.0000E+00  0.2000E+01
    -15.609  0.0000E+00  0.2000E+01
    -15.515  0.0000E+00  0.2000E+01
    -15.421  0.0000E+00  0.2000E+01
    -15.326  0.0000E+00  0.2000E+01
    -15.232  0.0000E+00  0.2000E+01
    -15.138  0.0000E+00  0.2000E+01
    -15.044  0.0000E+00  0.2000E+01
    -14.949  0.0000E+00  0.2000E+01
    -14.855  0.0000E+00  0.2000E+01
    -14.761  0.0000E+00  0.2000E+01
    -14.667  0.0000E+00  0.2000E+01
    -14.572  0.0000E+00  0.2000E+01
    -14.478  0.0000E+00  0.2000E+01
    -14.384  0.0000E+00  0.2000E+01
    -14.290  0.0000E+00  0.2000E+01
    -14.195  0.0000E+00  0.2000E+01
    -14.101  0.0000E+00  0.2000E+01
    -14.007  0.0000E+00  0.2000E+01
    -13.913  0.0000E+00  0.2000E+01
    -13.818  0.0000E+00  0.2000E+01
    -13.724  0.0000E+00  0.2000E+01
    -13.630  0.0000E+00  0.2000E+01
    -13.536  0.0000E+00  0.2000E+01
    -13.441  0.0000E+00  0.2000E+01
    -13.347  0.0000E+00  0.2000E+01
    -13.253  0.0000E+00  0.2000E+01
    -13.158  0.0000E+00  0.2000E+01
    -13.064  0.0000E+00  0.2000E+01
    -12.970  0.0000E+00  0.2000E+01
    -12.876  0.0000E+00  0.2000E+01
    -12.781  0.0000E+00  0.2000E+01
    -12.687  0.0000E+00  0.2000E+01
    -12.593  0.0000E+00  0.2000E+01
    -12.499  0.0000E+00  0.2000E+01
    -12.404  0.0000E+00  0.2000E+01
    -12.310  0.0000E+00  0.2000E+01
    -12.216  0.0000E+00  0.2000E+01
    -12.122  0.0000E+00  0.2000E+01
    -12.027  0.0000E+00  0.2000E+01
    -11.933  0.0000E+00  0.2000E+01
    -11.839  0.0000E+00  0.2000E+01
    -11.745  0.0000E+00  0.2000E+01
    -11.650  0.0000E+00  0.2000E+01
    -11.556  0.0000E+00  0.2000E+01
    -11.462  0.0000E+00  0.2000E+01
    -11.368  0.0000E+00  0.2000E+01
    -11.273  0.0000E+00  0.2000E+01
    -11.179  0.0000E+00  0.2000E+01
    -11.085  0.0000E+00  0.2000E+01
    -10.991  0.0000E+00  0.2000E+01
    -10.896  0.0000E+00  0.2000E+01
    -10.802  0.0000E+00  0.2000E+01
    -10.708  0.0000E+00  0.2000E+01
    -10.613  0.0000E+00  0.2000E+01
    -10.519  0.0000E+00  0.2000E+01
    -10.425  0.0000E+00  0.2000E+01
    -10.331  0.0000E+00  0.2000E+01
    -10.236  0.0000E+00  0.2000E+01
    -10.142  0.0000E+00  0.2000E+01
    -10.048  0.0000E+00  0.2000E+01
     -9.954  0.0000E+00  0.2000E+01
     -9.859  0.0000E+00  0.2000E+01
     -9.765  0.0000E+00  0.2000E+01
     -9.671  0.0000E+00  0.2000E+01
     -9.577  0.0000E+00  0.2000E+01
     -9.482  0.0000E+00  0.2000E+01
     -9.388  0.0000E+00  0.2000E+01
     -9.294  0.0000E+00  0.2000E+01
     -9.200  0.0000E+00  0.2000E+01
     -9.105  0.0000E+00  0.2000E+01
     -9.011  0.0000E+00  0.2000E+01
     -8.917  0.2379E+01  0.2224E+01
     -8.823  0.0000E+00  0.8000E+01
     -8.728  0.0000E+00  0.8000E+01
     -8.634  0.0000E+00  0.8000E+01
     -8.540  0.0000E+00  0.8000E+01
     -8.446  0.0000E+00  0.8000E+01
     -8.351  0.0000E+00  0.8000E+01
     -8.257  0.0000E+00  0.8000E+01
     -8.163  0.0000E+00  0.8000E+01
     -8.068  0.0000E+00  0.8000E+01
     -7.974  0.0000E+00  0.8000E+01
     -7.880  0.0000E+00  0.8000E+01
     -7.786  0.0000E+00  0.8000E+01
     -7.691  0.0000E+00  0.8000E+01
     -7.597  0.0000E+00  0.8000E+01
     -7.503  0.0000E+00  0.8000E+01
     -7.409  0.0000E+00  0.8000E+01
     -7.314  0.0000E+00  0.8000E+01
     -7.220  0.0000E+00  0.8000E+01
     -7.126  0.0000E+00  0.8000E+01
     -7.032  0.0000E+00  0.8000E+01
     -6.937  0.0000E+00  0.8000E+01
     -6.843  0.0000E+00  0.8000E+01
     -6.749  0.0000E+00  0.8000E+01
     -6.655  0.0000E+00  0.8000E+01
     -6.560  0.0000E+00  0.8000E+01
     -6.466  0.0000E+00  0.8000E+01
     -6.372  0.0000E+00  0.8000E+01
     -6.278  0.0000E+00  0.8000E+01
     -6.183  0.0000E+00  0.8000E+01
     -6.089  0.0000E+00  0.8000E+01
     -5.995  0.0000E+00  0.8000E+01
     -5.901  0.0000E+00  0.8000E+01
     -5.806  0.0000E+00  0.8000E+01
     -5.712  0.0000E+00  0.8000E+01
     -5.618  0.0000E+00  0.8000E+01
     -5.523  0.0000E+00  0.8000E+01
     -5.429  0.0000E+00  0.8000E+01
     -5.335  0.0000E+00  0.8000E+01
     -5.241  0.0000E+00  0.8000E+01
     -5.146  0.0000E+00  0.8000E+01
     -5.052  0.0000E+00  0.8000E+01
     -4.958  0.0000E+00  0.8000E+01
     -4.864  0.0000E+00  0.8000E+01
     -4.769  0.0000E+00  0.8000E+01
     -4.675  0.0000E+00  0.8000E+01
     -4.581  0.0000E+00  0.8000E+01
     -4.487  0.0000E+00  0.8000E+01
     -4.392  0.0000E+00  0.8000E+01
     -4.298  0.0000E+00  0.8000E+01
     -4.204  0.0000E+00  0.8000E+01
     -4.110  0.0000E+00  0.8000E+01
     -4.015  0.0000E+00  0.8000E+01
     -3.921  0.0000E+00  0.8000E+01
     -3.827  0.0000E+00  0.8000E+01
     -3.733  0.0000E+00  0.8000E+01
     -3.638  0.0000E+00  0.8000E+01
     -3.544  0.0000E+00  0.8000E+01
     -3.450  0.0000E+00  0.8000E+01
     -3.356  0.0000E+00  0.8000E+01
     -3.261  0.0000E+00  0.8000E+01
     -3.167  0.0000E+00  0.8000E+01
     -3.073  0.0000E+00  0.8000E+01
     -2.978  0.0000E+00  0.8000E+01
     -2.884  0.0000E+00  0.8000E+01
     -2.790  0.0000E+00  0.8000E+01
     -2.696  0.0000E+00  0.8000E+01
     -2.601  0.0000E+00  0.8000E+01
     -2.507  0.0000E+00  0.8000E+01
     -2.413  0.0000E+00  0.8000E+01
     -2.319  0.0000E+00  0.8000E+01
     -2.224  0.0000E+00  0.8000E+01
     -2.130  0.0000E+00  0.8000E+01
     -2.036  0.0000E+00  0.8000E+01
     -1.942  0.0000E+00  0.8000E+01
     -1.847  0.0000E+00  0.8000E+01
     -1.753  0.0000E+00  0.8000E+01
     -1.659  0.0000E+00  0.8000E+01
     -1.565  0.0000E+00  0.8000E+01
     -1.470  0.0000E+00  0.8000E+01
     -1.376  0.0000E+00  0.8000E+01
     -1.282  0.0000E+00  0.8000E+01
     -1.188  0.0000E+00  0.8000E+01
     -1.093  0.0000E+00  0.8000E+01
     -0.999  0.0000E+00  0.8000E+01
     -0.905  0.0000E+00  0.8000E+01
     -0.811  0.0000E+00  0.8000E+01
     -0.716  0.0000E+00  0.8000E+01
     -0.622  0.0000E+00  0.8000E+01
     -0.528  0.0000E+00  0.8000E+01
     -0.433  0.2122E+02  0.1000E+02
     -0.339  0.0000E+00  0.1000E+02
     -0.245  0.0000E+00  0.1000E+02
     -0.151  0.0000E+00  0.1000E+02
     -0.056  0.0000E+00  0.1000E+02
      0.038  0.0000E+00  0.1000E+02
      0.132  0.0000E+00  0.1000E+02
      0.226  0.0000E+00  0.1000E+02
      0.321  0.0000E+00  0.1000E+02
      0.415  0.0000E+00  0.1000E+02
      0.509  0.0000E+00  0.1000E+02
      0.603  0.0000E+00  0.1000E+02
      0.698  0.0000E+00  0.1000E+02
      0.792  0.0000E+00  0.1000E+02
      0.886  0.0000E+00  0.1000E+02
      0.980  0.0000E+00  0.1000E+02
      1.075  0.0000E+00  0.1000E+02
      1.169  0.0000E+00  0.1000E+02
      1.263  0.0000E+00  0.1000E+02
      1.357  0.0000E+00  0.1000E+02
      1.452  0.0000E+00  0.1000E+02
      1.546  0.0000E+00  0.1000E+02
      1.640  0.0000E+00  0.1000E+02
      1.734  0.0000E+00  0.1000E+02
      1.829  0.3982E-04  0.1000E+02
      1.923  0.6365E+02  0.1600E+02
      2.017  0.0000E+00  0.1600E+02
      2.112  0.0000E+00  0.1600E+02
      2.206  0.0000E+00  0.1600E+02
      2.300  0.0000E+00  0.1600E+02
      2.394  0.0000E+00  0.1600E+02
      2.489  0.0000E+00  0.1600E+02
      2.583  0.0000E+00  0.1600E+02
      2.677  0.0000E+00  0.1600E+02
      2.771  0.0000E+00  0.1600E+02
      2.866  0.0000E+00  0.1600E+02
      2.960  0.0000E+00  0.1600E+02
      3.054  0.0000E+00  0.1600E+02
      3.148  0.0000E+00  0.1600E+02
