<?xml version="1.0" encoding="ISO-8859-1"?>
<modeling>
 <generator>
  <i name="program" type="string">vasp </i>
  <i name="version" type="string">5.4.4.18Apr17-6-g9f103f2a35  </i>
  <i name="subversion" type="string">(build May 01 2019 15:41:21) complex            parallel </i>
  <i name="platform" type="string">LinuxIFC </i>
  <i name="date" type="string">2019 05 01 </i>
  <i name="time" type="string">16:29:51 </i>
 </generator>
 <incar>
  <i type="string" name="SYSTEM"> O atom</i>
  <i type="string" name="PREC">normal</i>
  <i type="int" name="ISMEAR">     0</i>
  <i name="SIGMA">      0.01000000</i>
  <v type="int" name="KPOINT_BSE">    -1     0     0     0</v>
 </incar>
 <structure name="primitive_cell" >
  <crystal>
   <varray name="basis" >
    <v>       8.00000000       0.00000000       0.00000000 </v>
    <v>       0.00000000       8.00000000       0.00000000 </v>
    <v>       0.00000000       0.00000000       8.00000000 </v>
   </varray>
   <i name="volume">    512.00000000 </i>
   <varray name="rec_basis" >
    <v>       0.12500000       0.00000000       0.00000000 </v>
    <v>       0.00000000       0.12500000       0.00000000 </v>
    <v>       0.00000000       0.00000000       0.12500000 </v>
   </varray>
  </crystal>
  <varray name="positions" >
   <v>       0.00000000       0.00000000       0.00000000 </v>
  </varray>
 </structure>
 <varray name="primitive_index" >
  <v type="int" >        1 </v>
 </varray>
 <kpoints>
  <generation param="Gamma">
   <v type="int" name="divisions">       1        1        1 </v>
   <v name="usershift">      0.00000000       0.00000000       0.00000000 </v>
   <v name="genvec1">      1.00000000       0.00000000       0.00000000 </v>
   <v name="genvec2">      0.00000000       1.00000000       0.00000000 </v>
   <v name="genvec3">      0.00000000       0.00000000       1.00000000 </v>
   <v name="shift">      0.00000000       0.00000000       0.00000000 </v>
  </generation>
  <varray name="kpointlist" >
   <v>       0.00000000       0.00000000       0.00000000 </v>
  </varray>
  <varray name="weights" >
   <v>       1.00000000 </v>
  </varray>
 </kpoints>
 <parameters>
  <separator name="general" >
   <i type="string" name="SYSTEM">O atom</i>
   <i type="logical" name="LCOMPAT"> F  </i>
  </separator>
  <separator name="electronic" >
   <i type="string" name="PREC">normal</i>
   <i name="ENMAX">    400.00000000</i>
   <i name="ENAUG">    605.39200000</i>
   <i name="EDIFF">      0.00010000</i>
   <i type="int" name="IALGO">    38</i>
   <i type="int" name="IWAVPR">    10</i>
   <i type="int" name="NBANDS">     8</i>
   <i name="NELECT">      6.00000000</i>
   <i type="int" name="TURBO">     0</i>
   <i type="int" name="IRESTART">     0</i>
   <i type="int" name="NREBOOT">     0</i>
   <i type="int" name="NMIN">     0</i>
   <i name="EREF">      0.00000000</i>
   <separator name="electronic smearing" >
    <i type="int" name="ISMEAR">     0</i>
    <i name="SIGMA">      0.01000000</i>
    <i name="KSPACING">      0.50000000</i>
    <i type="logical" name="KGAMMA"> T  </i>
   </separator>
   <separator name="electronic projectors" >
    <i type="logical" name="LREAL"> F  </i>
    <v name="ROPT">      0.00000000</v>
    <i type="int" name="LMAXPAW">  -100</i>
    <i type="int" name="LMAXMIX">     2</i>
    <i type="logical" name="NLSPLINE"> F  </i>
   </separator>
   <separator name="electronic startup" >
    <i type="int" name="ISTART">     0</i>
    <i type="int" name="ICHARG">     2</i>
    <i type="int" name="INIWAV">     1</i>
   </separator>
   <separator name="electronic spin" >
    <i type="int" name="ISPIN">     1</i>
    <i type="logical" name="LNONCOLLINEAR"> F  </i>
    <v name="MAGMOM">      1.00000000</v>
    <i name="NUPDOWN">     -1.00000000</i>
    <i type="logical" name="LSORBIT"> F  </i>
    <v name="SAXIS">      0.00000000      0.00000000      1.00000000</v>
    <i type="logical" name="LSPIRAL"> F  </i>
    <v name="QSPIRAL">      0.00000000      0.00000000      0.00000000</v>
    <i type="logical" name="LZEROZ"> F  </i>
   </separator>
   <separator name="electronic exchange-correlation" >
    <i type="logical" name="LASPH"> F  </i>
    <i type="logical" name="LMETAGGA"> F  </i>
   </separator>
   <separator name="electronic convergence" >
    <i type="int" name="NELM">    60</i>
    <i type="int" name="NELMDL">     0</i>
    <i type="int" name="NELMIN">     2</i>
    <i name="ENINI">    400.00000000</i>
    <separator name="electronic convergence detail" >
     <i type="logical" name="LDIAG"> T  </i>
     <i type="logical" name="LSUBROT"> F  </i>
     <i name="WEIMIN">      0.00000000</i>
     <i name="EBREAK">      0.00000313</i>
     <i name="DEPER">      0.30000000</i>
     <i type="int" name="NRMM">     4</i>
     <i name="TIME">      0.40000000</i>
    </separator>
   </separator>
   <separator name="electronic mixer" >
    <i name="AMIX">      0.40000000</i>
    <i name="BMIX">      1.00000000</i>
    <i name="AMIN">      0.10000000</i>
    <i name="AMIX_MAG">      1.60000000</i>
    <i name="BMIX_MAG">      1.00000000</i>
    <separator name="electronic mixer details" >
     <i type="int" name="IMIX">     4</i>
     <i type="logical" name="MIXFIRST"> F  </i>
     <i type="int" name="MAXMIX">   -45</i>
     <i name="WC">    100.00000000</i>
     <i type="int" name="INIMIX">     1</i>
     <i type="int" name="MIXPRE">     1</i>
     <i type="int" name="MREMOVE">     5</i>
    </separator>
   </separator>
   <separator name="electronic dipolcorrection" >
    <i type="logical" name="LDIPOL"> F  </i>
    <i type="logical" name="LMONO"> F  </i>
    <i type="int" name="IDIPOL">     0</i>
    <i name="EPSILON">      1.00000000</i>
    <v name="DIPOL">   -100.00000000   -100.00000000   -100.00000000</v>
    <i name="EFIELD">      0.00000000</i>
   </separator>
  </separator>
  <separator name="grids" >
   <i type="int" name="NGX">    40</i>
   <i type="int" name="NGY">    40</i>
   <i type="int" name="NGZ">    40</i>
   <i type="int" name="NGXF">    80</i>
   <i type="int" name="NGYF">    80</i>
   <i type="int" name="NGZF">    80</i>
   <i type="logical" name="ADDGRID"> F  </i>
  </separator>
  <separator name="ionic" >
   <i type="int" name="NSW">     0</i>
   <i type="int" name="IBRION">    -1</i>
   <i type="int" name="MDALGO">     0</i>
   <i type="int" name="ISIF">     2</i>
   <i name="PSTRESS">      0.00000000</i>
   <i name="EDIFFG">      0.00100000</i>
   <i type="int" name="NFREE">     0</i>
   <i name="POTIM">      0.50000000</i>
   <i name="SMASS">     -3.00000000</i>
   <i name="SCALEE">      1.00000000</i>
  </separator>
  <separator name="ionic md" >
   <i name="TEBEG">      0.00010000</i>
   <i name="TEEND">      0.00010000</i>
   <i type="int" name="NBLOCK">     1</i>
   <i type="int" name="KBLOCK">     1</i>
   <i type="int" name="NPACO">   256</i>
   <i name="APACO">     16.00000000</i>
  </separator>
  <separator name="symmetry" >
   <i type="int" name="ISYM">     2</i>
   <i name="SYMPREC">      0.00001000</i>
  </separator>
  <separator name="dos" >
   <i type="int" name="LORBIT">     0</i>
   <v name="RWIGS">     -1.00000000</v>
   <i type="int" name="NEDOS">   301</i>
   <i name="EMIN">     10.00000000</i>
   <i name="EMAX">    -10.00000000</i>
   <i name="EFERMI">      0.00000000</i>
  </separator>
  <separator name="writing" >
   <i type="int" name="NWRITE">     2</i>
   <i type="logical" name="LWAVE"> T  </i>
   <i type="logical" name="LDOWNSAMPLE"> F  </i>
   <i type="logical" name="LCHARG"> T  </i>
   <i type="logical" name="LPARD"> F  </i>
   <i type="logical" name="LVTOT"> F  </i>
   <i type="logical" name="LVHAR"> F  </i>
   <i type="logical" name="LELF"> F  </i>
   <i type="logical" name="LOPTICS"> F  </i>
   <v name="STM">      0.00000000      0.00000000      0.00000000      0.00000000      0.00000000      0.00000000      0.00000000</v>
  </separator>
  <separator name="performance" >
   <i type="int" name="NPAR">     2</i>
   <i type="int" name="NSIM">     4</i>
   <i type="int" name="NBLK">    -1</i>
   <i type="logical" name="LPLANE"> T  </i>
   <i type="logical" name="LSCALAPACK"> T  </i>
   <i type="logical" name="LSCAAWARE"> F  </i>
   <i type="logical" name="LSCALU"> F  </i>
   <i type="logical" name="LASYNC"> F  </i>
   <i type="logical" name="LORBITALREAL"> F  </i>
  </separator>
  <separator name="miscellaneous" >
   <i type="int" name="IDIOT">     3</i>
   <i type="int" name="ISPECIAL">     0</i>
   <i type="logical" name="LMUSIC"> F  </i>
   <v name="POMASS">     16.00000000</v>
   <v name="DARWINR">      0.00000000</v>
   <v name="DARWINV">      1.00000000</v>
   <i type="logical" name="LCORR"> T  </i>
  </separator>
  <i type="logical" name="GGA_COMPAT"> T  </i>
  <i type="logical" name="LBERRY"> F  </i>
  <i type="int" name="ICORELEVEL">     0</i>
  <i type="logical" name="LDAU"> F  </i>
  <i type="int" name="I_CONSTRAINED_M">     0</i>
  <separator name="electronic exchange-correlation" >
   <i type="string" name="GGA">--</i>
   <i type="int" name="VOSKOWN">     0</i>
   <i type="logical" name="LHFCALC"> F  </i>
   <i type="string" name="PRECFOCK"></i>
   <i type="logical" name="LSYMGRAD"> F  </i>
   <i type="logical" name="LHFONE"> F  </i>
   <i type="logical" name="LRHFCALC"> F  </i>
   <i type="logical" name="LTHOMAS"> F  </i>
   <i type="logical" name="LMODELHF"> F  </i>
   <i name="ENCUT4O">     -1.00000000</i>
   <i type="int" name="EXXOEP">     0</i>
   <i type="int" name="FOURORBIT">     0</i>
   <i name="AEXX">      0.00000000</i>
   <i name="HFALPHA">      0.00000000</i>
   <i name="MCALPHA">      0.00000000</i>
   <i name="ALDAX">      1.00000000</i>
   <i name="AGGAX">      1.00000000</i>
   <i name="ALDAC">      1.00000000</i>
   <i name="AGGAC">      1.00000000</i>
   <i type="int" name="NKREDX">     1</i>
   <i type="int" name="NKREDY">     1</i>
   <i type="int" name="NKREDZ">     1</i>
   <i type="logical" name="SHIFTRED"> F  </i>
   <i type="logical" name="ODDONLY"> F  </i>
   <i type="logical" name="EVENONLY"> F  </i>
   <i type="int" name="LMAXFOCK">     0</i>
   <i type="int" name="NMAXFOCKAE">     0</i>
   <i type="logical" name="LFOCKAEDFT"> F  </i>
   <i name="HFSCREEN">      0.00000000</i>
   <i name="HFSCREENC">      0.00000000</i>
   <i type="int" name="NBANDSGWLOW">     0</i>
  </separator>
  <separator name="vdW DFT" >
   <i type="logical" name="LUSE_VDW"> F  </i>
   <i name="Zab_VDW">     -0.84910000</i>
   <i name="PARAM1">      0.12340000</i>
   <i name="PARAM2">      1.00000000</i>
   <i name="PARAM3">      0.00000000</i>
  </separator>
  <separator name="model GW" >
   <i type="int" name="MODEL_GW">     0</i>
   <i name="MODEL_EPS0">    307.20000000</i>
   <i name="MODEL_ALPHA">      1.00000000</i>
  </separator>
  <separator name="linear response parameters" >
   <i type="logical" name="LEPSILON"> F  </i>
   <i type="logical" name="LRPA"> F  </i>
   <i type="logical" name="LNABLA"> F  </i>
   <i type="logical" name="LVEL"> F  </i>
   <i type="int" name="KINTER">     0</i>
   <i name="CSHIFT">      0.10000000</i>
   <i name="OMEGAMAX">     -1.00000000</i>
   <i name="DEG_THRESHOLD">      0.00200000</i>
   <i name="RTIME">     -0.10000000</i>
   <i name="WPLASMAI">      0.00000000</i>
   <v name="DFIELD">      0.00000000      0.00000000      0.00000000</v>
   <v name="WPLASMA">      0.00000000      0.00000000      0.00000000      0.00000000      0.00000000      0.00000000      0.00000000      0.00000000      0.00000000</v>
  </separator>
  <separator name="orbital magnetization" >
   <i type="logical" name="NUCIND"> F  </i>
   <v name="MAGPOS">      0.00000000      0.00000000      0.00000000</v>
   <i type="logical" name="LNICSALL"> T  </i>
   <i type="logical" name="ORBITALMAG"> F  </i>
   <i type="logical" name="LMAGBLOCH"> F  </i>
   <i type="logical" name="LCHIMAG"> F  </i>
   <i type="logical" name="LGAUGE"> T  </i>
   <i type="int" name="MAGATOM">     0</i>
   <v name="MAGDIPOL">      0.00000000      0.00000000      0.00000000</v>
   <v name="AVECCONST">      0.00000000      0.00000000      0.00000000</v>
  </separator>
  <separator name="response functions" >
   <i type="logical" name="LADDER"> F  </i>
   <i type="logical" name="LRPAFORCE"> F  </i>
   <i type="logical" name="LFXC"> F  </i>
   <i type="logical" name="LHARTREE"> T  </i>
   <i type="int" name="IBSE">     0</i>
   <v type="int" name="KPOINT">    -1     0     0     0</v>
   <i type="logical" name="LTCTE"> F  </i>
   <i type="logical" name="LTETE"> F  </i>
   <i type="logical" name="LTRIPLET"> F  </i>
   <i type="logical" name="LFXCEPS"> F  </i>
   <i type="logical" name="LFXHEG"> F  </i>
   <i type="int" name="NATURALO">     2</i>
   <i type="logical" name="L2ORDER"> F  </i>
   <i type="logical" name="LMP2LT"> F  </i>
   <i type="logical" name="LUSEW"> F  </i>
   <i name="ENCUTGW">     -2.00000000</i>
   <i name="ENCUTGWSOFT">     -2.00000000</i>
   <i name="ENCUTLF">     -1.00000000</i>
   <i type="int" name="LMAXMP2">    -1</i>
   <i name="SCISSOR">      0.00000000</i>
   <i type="int" name="NOMEGA">     0</i>
   <i type="int" name="NOMEGAR">     0</i>
   <i type="int" name="NBANDSGW">    -1</i>
   <i type="int" name="NBANDSO">    -1</i>
   <i type="int" name="NBANDSV">    -1</i>
   <i type="int" name="NELM">     1</i>
   <i type="int" name="NELMHF">     1</i>
   <i type="int" name="DIM">     3</i>
   <i type="int" name="ANTIRES">     0</i>
   <i name="OMEGAMAX">    -30.00000000</i>
   <i name="OMEGAMIN">    -30.00000000</i>
   <i name="OMEGATL">   -200.00000000</i>
   <i type="int" name="OMEGAGRID">   140</i>
   <i name="CSHIFT">     -0.10000000</i>
   <i type="logical" name="SELFENERGY"> F  </i>
   <i type="logical" name="LSPECTRAL"> F  </i>
   <i type="logical" name="LSPECTRALGW"> F  </i>
   <i type="logical" name="LSINGLES"> F  </i>
   <i type="logical" name="LFERMIGW"> F  </i>
   <i type="logical" name="ODDONLYGW"> F  </i>
   <i type="logical" name="EVENONLYGW"> F  </i>
   <i type="int" name="NKREDLFX">     1</i>
   <i type="int" name="NKREDLFY">     1</i>
   <i type="int" name="NKREDLFZ">     1</i>
   <i type="int" name="MAXMEM">  2800</i>
   <i type="int" name="TELESCOPE">     0</i>
   <i type="int" name="TAUPAR">     1</i>
   <i type="int" name="OMEGAPAR">    -1</i>
   <i name="LAMBDA">      1.00000000</i>
  </separator>
  <separator name="External order field" >
   <i name="OFIELD_KAPPA">      0.00000000</i>
   <v name="OFIELD_K">      0.00000000      0.00000000      0.00000000</v>
   <i name="OFIELD_Q6_NEAR">      0.00000000</i>
   <i name="OFIELD_Q6_FAR">      0.00000000</i>
   <i name="OFIELD_A">      0.00000000</i>
  </separator>
 </parameters>
 <atominfo>
  <atoms>       1 </atoms>
  <types>       1 </types>
  <array name="atoms" >
   <dimension dim="1">ion</dimension>
   <field type="string">element</field>
   <field type="int">atomtype</field>
   <set>
    <rc><c>O </c><c>   1</c></rc>
   </set>
  </array>
  <array name="atomtypes" >
   <dimension dim="1">type</dimension>
   <field type="int">atomspertype</field>
   <field type="string">element</field>
   <field>mass</field>
   <field>valence</field>
   <field type="string">pseudopotential</field>
   <set>
    <rc><c>   1</c><c>O </c><c>     16.00000000</c><c>      6.00000000</c><c>  PAW_PBE O 08Apr2002                   </c></rc>
   </set>
  </array>
 </atominfo>
 <structure name="initialpos" >
  <crystal>
   <varray name="basis" >
    <v>       8.00000000       0.00000000       0.00000000 </v>
    <v>       0.00000000       8.00000000       0.00000000 </v>
    <v>       0.00000000       0.00000000       8.00000000 </v>
   </varray>
   <i name="volume">    512.00000000 </i>
   <varray name="rec_basis" >
    <v>       0.12500000       0.00000000       0.00000000 </v>
    <v>       0.00000000       0.12500000       0.00000000 </v>
    <v>       0.00000000       0.00000000       0.12500000 </v>
   </varray>
  </crystal>
  <varray name="positions" >
   <v>       0.00000000       0.00000000       0.00000000 </v>
  </varray>
 </structure>
 <calculation>
  <scstep>
   <time name="dav">    0.06    0.06</time>
   <time name="total">    0.23    0.25</time>
   <energy>
    <i name="alphaZ">      0.27139542 </i>
    <i name="ewald">    -91.92708002 </i>
    <i name="hartreedc">   -281.84385743 </i>
    <i name="XCdc">     26.06853627 </i>
    <i name="pawpsdc">    346.54947689 </i>
    <i name="pawaedc">   -348.34814756 </i>
    <i name="eentropy">     -0.00000000 </i>
    <i name="bandstr">    -44.56514455 </i>
    <i name="atom">    432.26319604 </i>
    <i name="e_fr_energy">     38.46837506 </i>
    <i name="e_wo_entrp">     38.46837506 </i>
    <i name="e_0_energy">     38.46837506 </i>
   </energy>
  </scstep>
  <scstep>
   <time name="dav">    0.09    0.08</time>
   <time name="total">    0.09    0.08</time>
   <energy>
    <i name="e_fr_energy">      3.46010513 </i>
    <i name="e_wo_entrp">      3.46010513 </i>
    <i name="e_0_energy">      3.46010513 </i>
   </energy>
  </scstep>
  <scstep>
   <time name="dav">    0.05    0.06</time>
   <time name="total">    0.05    0.06</time>
   <energy>
    <i name="e_fr_energy">      0.03194324 </i>
    <i name="e_wo_entrp">      0.03717068 </i>
    <i name="e_0_energy">      0.03455696 </i>
   </energy>
  </scstep>
  <scstep>
   <time name="dav">    0.06    0.11</time>
   <time name="total">    0.06    0.11</time>
   <energy>
    <i name="e_fr_energy">     -0.01939473 </i>
    <i name="e_wo_entrp">     -0.00397192 </i>
    <i name="e_0_energy">     -0.01168332 </i>
   </energy>
  </scstep>
  <scstep>
   <time name="dav">    0.11    0.10</time>
   <time name="total">    0.14    0.19</time>
   <energy>
    <i name="e_fr_energy">     -0.02035469 </i>
    <i name="e_wo_entrp">     -0.00492846 </i>
    <i name="e_0_energy">     -0.01264158 </i>
   </energy>
  </scstep>
  <scstep>
   <time name="dav">    0.06    0.05</time>
   <time name="total">    0.25    0.24</time>
   <energy>
    <i name="e_fr_energy">     -0.02137248 </i>
    <i name="e_wo_entrp">     -0.00594625 </i>
    <i name="e_0_energy">     -0.01365937 </i>
   </energy>
  </scstep>
  <scstep>
   <time name="dav">    0.06    0.06</time>
   <time name="total">    0.22    0.22</time>
   <energy>
    <i name="alphaZ">      0.27139542 </i>
    <i name="ewald">    -91.92708002 </i>
    <i name="hartreedc">   -281.59536397 </i>
    <i name="XCdc">     26.05307276 </i>
    <i name="pawpsdc">    356.06276135 </i>
    <i name="pawaedc">   -357.82911424 </i>
    <i name="eentropy">     -0.01542623 </i>
    <i name="bandstr">    -83.30491203 </i>
    <i name="atom">    432.26319604 </i>
    <i name="e_fr_energy">     -0.02147094 </i>
    <i name="e_wo_entrp">     -0.00604470 </i>
    <i name="e_0_energy">     -0.01375782 </i>
   </energy>
  </scstep>
  <structure>
   <crystal>
    <varray name="basis" >
     <v>       8.00000000       0.00000000       0.00000000 </v>
     <v>       0.00000000       8.00000000       0.00000000 </v>
     <v>       0.00000000       0.00000000       8.00000000 </v>
    </varray>
    <i name="volume">    512.00000000 </i>
    <varray name="rec_basis" >
     <v>       0.12500000       0.00000000       0.00000000 </v>
     <v>       0.00000000       0.12500000       0.00000000 </v>
     <v>       0.00000000       0.00000000       0.12500000 </v>
    </varray>
   </crystal>
   <varray name="positions" >
    <v>       0.00000000       0.00000000       0.00000000 </v>
   </varray>
  </structure>
  <varray name="forces" >
   <v>       0.00000000       0.00000000       0.00000000 </v>
  </varray>
  <varray name="stress" >
   <v>      -2.32989236       0.00000000      -0.00000000 </v>
   <v>      -0.00000000      -2.32989236       0.00000000 </v>
   <v>      -0.00000000      -0.00000000      -2.32989236 </v>
  </varray>
  <energy>
   <i name="e_fr_energy">     -0.02147094 </i>
   <i name="e_wo_entrp">     -0.01375782 </i>
   <i name="e_0_energy">     -0.01542623 </i>
  </energy>
  <time name="totalsc">    2.30    2.44</time>
  <eigenvalues>
   <array>
    <dimension dim="1">band</dimension>
    <dimension dim="2">kpoint</dimension>
    <dimension dim="3">spin</dimension>
    <field>eigene</field>
    <field>occ</field>
    <set>
     <set comment="spin 1">
      <set comment="kpoint 1">
       <r>  -23.8440    1.0000 </r>
       <r>   -8.9042    0.6667 </r>
       <r>   -8.9042    0.6667 </r>
       <r>   -8.9042    0.6667 </r>
       <r>   -0.4679    0.0000 </r>
       <r>    1.8630    0.0000 </r>
       <r>    1.8630    0.0000 </r>
       <r>    1.8630    0.0000 </r>
      </set>
     </set>
    </set>
   </array>
  </eigenvalues>
  <separator name="orbital magnetization" >
   <v name="MAGDIPOLOUT">      0.00000000      0.00000000      0.00000000</v>
  </separator>
  <dos>
   <i name="efermi">     -8.90115885 </i>
   <total>
    <array>
     <dimension dim="1">gridpoints</dimension>
     <dimension dim="2">spin</dimension>
     <field>energy</field>
     <field>total</field>
     <field>integrated</field>
     <set>
      <set comment="spin 1">
       <r>   -25.1294     0.0000     0.0000 </r>
       <r>   -25.0351     0.0000     0.0000 </r>
       <r>   -24.9409     0.0000     0.0000 </r>
       <r>   -24.8466     0.0000     0.0000 </r>
       <r>   -24.7524     0.0000     0.0000 </r>
       <r>   -24.6581     0.0000     0.0000 </r>
       <r>   -24.5638     0.0000     0.0000 </r>
       <r>   -24.4696     0.0000     0.0000 </r>
       <r>   -24.3753     0.0000     0.0000 </r>
       <r>   -24.2811     0.0000     0.0000 </r>
       <r>   -24.1868     0.0000     0.0000 </r>
       <r>   -24.0925     0.0000     0.0000 </r>
       <r>   -23.9983     0.0000     0.0000 </r>
       <r>   -23.9040     0.0000     0.0000 </r>
       <r>   -23.8098    21.2181     2.0000 </r>
       <r>   -23.7155     0.0000     2.0000 </r>
       <r>   -23.6213     0.0000     2.0000 </r>
       <r>   -23.5270     0.0000     2.0000 </r>
       <r>   -23.4327     0.0000     2.0000 </r>
       <r>   -23.3385     0.0000     2.0000 </r>
       <r>   -23.2442     0.0000     2.0000 </r>
       <r>   -23.1500     0.0000     2.0000 </r>
       <r>   -23.0557     0.0000     2.0000 </r>
       <r>   -22.9614     0.0000     2.0000 </r>
       <r>   -22.8672     0.0000     2.0000 </r>
       <r>   -22.7729     0.0000     2.0000 </r>
       <r>   -22.6787     0.0000     2.0000 </r>
       <r>   -22.5844     0.0000     2.0000 </r>
       <r>   -22.4901     0.0000     2.0000 </r>
       <r>   -22.3959     0.0000     2.0000 </r>
       <r>   -22.3016     0.0000     2.0000 </r>
       <r>   -22.2074     0.0000     2.0000 </r>
       <r>   -22.1131     0.0000     2.0000 </r>
       <r>   -22.0188     0.0000     2.0000 </r>
       <r>   -21.9246     0.0000     2.0000 </r>
       <r>   -21.8303     0.0000     2.0000 </r>
       <r>   -21.7361     0.0000     2.0000 </r>
       <r>   -21.6418     0.0000     2.0000 </r>
       <r>   -21.5475     0.0000     2.0000 </r>
       <r>   -21.4533     0.0000     2.0000 </r>
       <r>   -21.3590     0.0000     2.0000 </r>
       <r>   -21.2648     0.0000     2.0000 </r>
       <r>   -21.1705     0.0000     2.0000 </r>
       <r>   -21.0763     0.0000     2.0000 </r>
       <r>   -20.9820     0.0000     2.0000 </r>
       <r>   -20.8877     0.0000     2.0000 </r>
       <r>   -20.7935     0.0000     2.0000 </r>
       <r>   -20.6992     0.0000     2.0000 </r>
       <r>   -20.6050     0.0000     2.0000 </r>
       <r>   -20.5107     0.0000     2.0000 </r>
       <r>   -20.4164     0.0000     2.0000 </r>
       <r>   -20.3222     0.0000     2.0000 </r>
       <r>   -20.2279     0.0000     2.0000 </r>
       <r>   -20.1337     0.0000     2.0000 </r>
       <r>   -20.0394     0.0000     2.0000 </r>
       <r>   -19.9451     0.0000     2.0000 </r>
       <r>   -19.8509     0.0000     2.0000 </r>
       <r>   -19.7566     0.0000     2.0000 </r>
       <r>   -19.6624     0.0000     2.0000 </r>
       <r>   -19.5681     0.0000     2.0000 </r>
       <r>   -19.4738     0.0000     2.0000 </r>
       <r>   -19.3796     0.0000     2.0000 </r>
       <r>   -19.2853     0.0000     2.0000 </r>
       <r>   -19.1911     0.0000     2.0000 </r>
       <r>   -19.0968     0.0000     2.0000 </r>
       <r>   -19.0025     0.0000     2.0000 </r>
       <r>   -18.9083     0.0000     2.0000 </r>
       <r>   -18.8140     0.0000     2.0000 </r>
       <r>   -18.7198     0.0000     2.0000 </r>
       <r>   -18.6255     0.0000     2.0000 </r>
       <r>   -18.5313     0.0000     2.0000 </r>
       <r>   -18.4370     0.0000     2.0000 </r>
       <r>   -18.3427     0.0000     2.0000 </r>
       <r>   -18.2485     0.0000     2.0000 </r>
       <r>   -18.1542     0.0000     2.0000 </r>
       <r>   -18.0600     0.0000     2.0000 </r>
       <r>   -17.9657     0.0000     2.0000 </r>
       <r>   -17.8714     0.0000     2.0000 </r>
       <r>   -17.7772     0.0000     2.0000 </r>
       <r>   -17.6829     0.0000     2.0000 </r>
       <r>   -17.5887     0.0000     2.0000 </r>
       <r>   -17.4944     0.0000     2.0000 </r>
       <r>   -17.4001     0.0000     2.0000 </r>
       <r>   -17.3059     0.0000     2.0000 </r>
       <r>   -17.2116     0.0000     2.0000 </r>
       <r>   -17.1174     0.0000     2.0000 </r>
       <r>   -17.0231     0.0000     2.0000 </r>
       <r>   -16.9288     0.0000     2.0000 </r>
       <r>   -16.8346     0.0000     2.0000 </r>
       <r>   -16.7403     0.0000     2.0000 </r>
       <r>   -16.6461     0.0000     2.0000 </r>
       <r>   -16.5518     0.0000     2.0000 </r>
       <r>   -16.4575     0.0000     2.0000 </r>
       <r>   -16.3633     0.0000     2.0000 </r>
       <r>   -16.2690     0.0000     2.0000 </r>
       <r>   -16.1748     0.0000     2.0000 </r>
       <r>   -16.0805     0.0000     2.0000 </r>
       <r>   -15.9863     0.0000     2.0000 </r>
       <r>   -15.8920     0.0000     2.0000 </r>
       <r>   -15.7977     0.0000     2.0000 </r>
       <r>   -15.7035     0.0000     2.0000 </r>
       <r>   -15.6092     0.0000     2.0000 </r>
       <r>   -15.5150     0.0000     2.0000 </r>
       <r>   -15.4207     0.0000     2.0000 </r>
       <r>   -15.3264     0.0000     2.0000 </r>
       <r>   -15.2322     0.0000     2.0000 </r>
       <r>   -15.1379     0.0000     2.0000 </r>
       <r>   -15.0437     0.0000     2.0000 </r>
       <r>   -14.9494     0.0000     2.0000 </r>
       <r>   -14.8551     0.0000     2.0000 </r>
       <r>   -14.7609     0.0000     2.0000 </r>
       <r>   -14.6666     0.0000     2.0000 </r>
       <r>   -14.5724     0.0000     2.0000 </r>
       <r>   -14.4781     0.0000     2.0000 </r>
       <r>   -14.3838     0.0000     2.0000 </r>
       <r>   -14.2896     0.0000     2.0000 </r>
       <r>   -14.1953     0.0000     2.0000 </r>
       <r>   -14.1011     0.0000     2.0000 </r>
       <r>   -14.0068     0.0000     2.0000 </r>
       <r>   -13.9125     0.0000     2.0000 </r>
       <r>   -13.8183     0.0000     2.0000 </r>
       <r>   -13.7240     0.0000     2.0000 </r>
       <r>   -13.6298     0.0000     2.0000 </r>
       <r>   -13.5355     0.0000     2.0000 </r>
       <r>   -13.4413     0.0000     2.0000 </r>
       <r>   -13.3470     0.0000     2.0000 </r>
       <r>   -13.2527     0.0000     2.0000 </r>
       <r>   -13.1585     0.0000     2.0000 </r>
       <r>   -13.0642     0.0000     2.0000 </r>
       <r>   -12.9700     0.0000     2.0000 </r>
       <r>   -12.8757     0.0000     2.0000 </r>
       <r>   -12.7814     0.0000     2.0000 </r>
       <r>   -12.6872     0.0000     2.0000 </r>
       <r>   -12.5929     0.0000     2.0000 </r>
       <r>   -12.4987     0.0000     2.0000 </r>
       <r>   -12.4044     0.0000     2.0000 </r>
       <r>   -12.3101     0.0000     2.0000 </r>
       <r>   -12.2159     0.0000     2.0000 </r>
       <r>   -12.1216     0.0000     2.0000 </r>
       <r>   -12.0274     0.0000     2.0000 </r>
       <r>   -11.9331     0.0000     2.0000 </r>
       <r>   -11.8388     0.0000     2.0000 </r>
       <r>   -11.7446     0.0000     2.0000 </r>
       <r>   -11.6503     0.0000     2.0000 </r>
       <r>   -11.5561     0.0000     2.0000 </r>
       <r>   -11.4618     0.0000     2.0000 </r>
       <r>   -11.3675     0.0000     2.0000 </r>
       <r>   -11.2733     0.0000     2.0000 </r>
       <r>   -11.1790     0.0000     2.0000 </r>
       <r>   -11.0848     0.0000     2.0000 </r>
       <r>   -10.9905     0.0000     2.0000 </r>
       <r>   -10.8963     0.0000     2.0000 </r>
       <r>   -10.8020     0.0000     2.0000 </r>
       <r>   -10.7077     0.0000     2.0000 </r>
       <r>   -10.6135     0.0000     2.0000 </r>
       <r>   -10.5192     0.0000     2.0000 </r>
       <r>   -10.4250     0.0000     2.0000 </r>
       <r>   -10.3307     0.0000     2.0000 </r>
       <r>   -10.2364     0.0000     2.0000 </r>
       <r>   -10.1422     0.0000     2.0000 </r>
       <r>   -10.0479     0.0000     2.0000 </r>
       <r>    -9.9537     0.0000     2.0000 </r>
       <r>    -9.8594     0.0000     2.0000 </r>
       <r>    -9.7651     0.0000     2.0000 </r>
       <r>    -9.6709     0.0000     2.0000 </r>
       <r>    -9.5766     0.0000     2.0000 </r>
       <r>    -9.4824     0.0000     2.0000 </r>
       <r>    -9.3881     0.0000     2.0000 </r>
       <r>    -9.2938     0.0000     2.0000 </r>
       <r>    -9.1996     0.0000     2.0000 </r>
       <r>    -9.1053     0.0000     2.0000 </r>
       <r>    -9.0111     0.0000     2.0000 </r>
       <r>    -8.9168     2.3788     2.2242 </r>
       <r>    -8.8225     0.0000     8.0000 </r>
       <r>    -8.7283     0.0000     8.0000 </r>
       <r>    -8.6340     0.0000     8.0000 </r>
       <r>    -8.5398     0.0000     8.0000 </r>
       <r>    -8.4455     0.0000     8.0000 </r>
       <r>    -8.3512     0.0000     8.0000 </r>
       <r>    -8.2570     0.0000     8.0000 </r>
       <r>    -8.1627     0.0000     8.0000 </r>
       <r>    -8.0685     0.0000     8.0000 </r>
       <r>    -7.9742     0.0000     8.0000 </r>
       <r>    -7.8800     0.0000     8.0000 </r>
       <r>    -7.7857     0.0000     8.0000 </r>
       <r>    -7.6914     0.0000     8.0000 </r>
       <r>    -7.5972     0.0000     8.0000 </r>
       <r>    -7.5029     0.0000     8.0000 </r>
       <r>    -7.4087     0.0000     8.0000 </r>
       <r>    -7.3144     0.0000     8.0000 </r>
       <r>    -7.2201     0.0000     8.0000 </r>
       <r>    -7.1259     0.0000     8.0000 </r>
       <r>    -7.0316     0.0000     8.0000 </r>
       <r>    -6.9374     0.0000     8.0000 </r>
       <r>    -6.8431     0.0000     8.0000 </r>
       <r>    -6.7488     0.0000     8.0000 </r>
       <r>    -6.6546     0.0000     8.0000 </r>
       <r>    -6.5603     0.0000     8.0000 </r>
       <r>    -6.4661     0.0000     8.0000 </r>
       <r>    -6.3718     0.0000     8.0000 </r>
       <r>    -6.2775     0.0000     8.0000 </r>
       <r>    -6.1833     0.0000     8.0000 </r>
       <r>    -6.0890     0.0000     8.0000 </r>
       <r>    -5.9948     0.0000     8.0000 </r>
       <r>    -5.9005     0.0000     8.0000 </r>
       <r>    -5.8062     0.0000     8.0000 </r>
       <r>    -5.7120     0.0000     8.0000 </r>
       <r>    -5.6177     0.0000     8.0000 </r>
       <r>    -5.5235     0.0000     8.0000 </r>
       <r>    -5.4292     0.0000     8.0000 </r>
       <r>    -5.3350     0.0000     8.0000 </r>
       <r>    -5.2407     0.0000     8.0000 </r>
       <r>    -5.1464     0.0000     8.0000 </r>
       <r>    -5.0522     0.0000     8.0000 </r>
       <r>    -4.9579     0.0000     8.0000 </r>
       <r>    -4.8637     0.0000     8.0000 </r>
       <r>    -4.7694     0.0000     8.0000 </r>
       <r>    -4.6751     0.0000     8.0000 </r>
       <r>    -4.5809     0.0000     8.0000 </r>
       <r>    -4.4866     0.0000     8.0000 </r>
       <r>    -4.3924     0.0000     8.0000 </r>
       <r>    -4.2981     0.0000     8.0000 </r>
       <r>    -4.2038     0.0000     8.0000 </r>
       <r>    -4.1096     0.0000     8.0000 </r>
       <r>    -4.0153     0.0000     8.0000 </r>
       <r>    -3.9211     0.0000     8.0000 </r>
       <r>    -3.8268     0.0000     8.0000 </r>
       <r>    -3.7325     0.0000     8.0000 </r>
       <r>    -3.6383     0.0000     8.0000 </r>
       <r>    -3.5440     0.0000     8.0000 </r>
       <r>    -3.4498     0.0000     8.0000 </r>
       <r>    -3.3555     0.0000     8.0000 </r>
       <r>    -3.2612     0.0000     8.0000 </r>
       <r>    -3.1670     0.0000     8.0000 </r>
       <r>    -3.0727     0.0000     8.0000 </r>
       <r>    -2.9785     0.0000     8.0000 </r>
       <r>    -2.8842     0.0000     8.0000 </r>
       <r>    -2.7900     0.0000     8.0000 </r>
       <r>    -2.6957     0.0000     8.0000 </r>
       <r>    -2.6014     0.0000     8.0000 </r>
       <r>    -2.5072     0.0000     8.0000 </r>
       <r>    -2.4129     0.0000     8.0000 </r>
       <r>    -2.3187     0.0000     8.0000 </r>
       <r>    -2.2244     0.0000     8.0000 </r>
       <r>    -2.1301     0.0000     8.0000 </r>
       <r>    -2.0359     0.0000     8.0000 </r>
       <r>    -1.9416     0.0000     8.0000 </r>
       <r>    -1.8474     0.0000     8.0000 </r>
       <r>    -1.7531     0.0000     8.0000 </r>
       <r>    -1.6588     0.0000     8.0000 </r>
       <r>    -1.5646     0.0000     8.0000 </r>
       <r>    -1.4703     0.0000     8.0000 </r>
       <r>    -1.3761     0.0000     8.0000 </r>
       <r>    -1.2818     0.0000     8.0000 </r>
       <r>    -1.1875     0.0000     8.0000 </r>
       <r>    -1.0933     0.0000     8.0000 </r>
       <r>    -0.9990     0.0000     8.0000 </r>
       <r>    -0.9048     0.0000     8.0000 </r>
       <r>    -0.8105     0.0000     8.0000 </r>
       <r>    -0.7162     0.0000     8.0000 </r>
       <r>    -0.6220     0.0000     8.0000 </r>
       <r>    -0.5277     0.0000     8.0000 </r>
       <r>    -0.4335    21.2181    10.0000 </r>
       <r>    -0.3392     0.0000    10.0000 </r>
       <r>    -0.2450     0.0000    10.0000 </r>
       <r>    -0.1507     0.0000    10.0000 </r>
       <r>    -0.0564     0.0000    10.0000 </r>
       <r>     0.0378     0.0000    10.0000 </r>
       <r>     0.1321     0.0000    10.0000 </r>
       <r>     0.2263     0.0000    10.0000 </r>
       <r>     0.3206     0.0000    10.0000 </r>
       <r>     0.4149     0.0000    10.0000 </r>
       <r>     0.5091     0.0000    10.0000 </r>
       <r>     0.6034     0.0000    10.0000 </r>
       <r>     0.6976     0.0000    10.0000 </r>
       <r>     0.7919     0.0000    10.0000 </r>
       <r>     0.8862     0.0000    10.0000 </r>
       <r>     0.9804     0.0000    10.0000 </r>
       <r>     1.0747     0.0000    10.0000 </r>
       <r>     1.1689     0.0000    10.0000 </r>
       <r>     1.2632     0.0000    10.0000 </r>
       <r>     1.3575     0.0000    10.0000 </r>
       <r>     1.4517     0.0000    10.0000 </r>
       <r>     1.5460     0.0000    10.0000 </r>
       <r>     1.6402     0.0000    10.0000 </r>
       <r>     1.7345     0.0000    10.0000 </r>
       <r>     1.8288     0.0000    10.0000 </r>
       <r>     1.9230    63.6542    16.0000 </r>
       <r>     2.0173     0.0000    16.0000 </r>
       <r>     2.1115     0.0000    16.0000 </r>
       <r>     2.2058     0.0000    16.0000 </r>
       <r>     2.3000     0.0000    16.0000 </r>
       <r>     2.3943     0.0000    16.0000 </r>
       <r>     2.4886     0.0000    16.0000 </r>
       <r>     2.5828     0.0000    16.0000 </r>
       <r>     2.6771     0.0000    16.0000 </r>
       <r>     2.7713     0.0000    16.0000 </r>
       <r>     2.8656     0.0000    16.0000 </r>
       <r>     2.9599     0.0000    16.0000 </r>
       <r>     3.0541     0.0000    16.0000 </r>
       <r>     3.1484     0.0000    16.0000 </r>
      </set>
     </set>
    </array>
   </total>
  </dos>
 </calculation>
 <structure name="finalpos" >
  <crystal>
   <varray name="basis" >
    <v>       8.00000000       0.00000000       0.00000000 </v>
    <v>       0.00000000       8.00000000       0.00000000 </v>
    <v>       0.00000000       0.00000000       8.00000000 </v>
   </varray>
   <i name="volume">    512.00000000 </i>
   <varray name="rec_basis" >
    <v>       0.12500000       0.00000000       0.00000000 </v>
    <v>       0.00000000       0.12500000       0.00000000 </v>
    <v>       0.00000000       0.00000000       0.12500000 </v>
   </varray>
  </crystal>
  <varray name="positions" >
   <v>       0.00000000       0.00000000       0.00000000 </v>
  </varray>
 </structure>
</modeling>
