   3   3   0   0
  0.8535574E+02  0.6350160E-09  0.6350160E-09  0.6350160E-09  0.1000000E-14
   2000.0000000000000     
  CAR 
 unknown system                          
      3.92776452    -26.19154220  301     -6.30652491      1.00000000
    -26.192  0.0000E+00  0.0000E+00
    -26.091  0.0000E+00  0.0000E+00
    -25.991  0.0000E+00  0.0000E+00
    -25.890  0.0000E+00  0.0000E+00
    -25.790  0.0000E+00  0.0000E+00
    -25.690  0.0000E+00  0.0000E+00
    -25.589  0.0000E+00  0.0000E+00
    -25.489  0.0000E+00  0.0000E+00
    -25.388  0.2046E-13  0.2019E-14
    -25.288  0.5678E-09  0.5627E-10
    -25.188  0.2511E-05  0.2502E-06
    -25.087  0.1758E-02  0.1763E-03
    -24.987  0.1934E+00  0.1963E-01
    -24.886  0.3410E+01  0.3636E+00
    -24.786  0.1023E+02  0.1396E+01
    -24.686  0.5468E+01  0.1948E+01
    -24.585  0.5061E+00  0.1999E+01
    -24.485  0.7610E-02  0.2000E+01
    -24.384  0.1801E-04  0.2000E+01
    -24.284  0.6724E-08  0.2000E+01
    -24.184  0.3996E-12  0.2000E+01
    -24.083  0.0000E+00  0.2000E+01
    -23.983  0.0000E+00  0.2000E+01
    -23.882  0.0000E+00  0.2000E+01
    -23.782  0.0000E+00  0.2000E+01
    -23.682  0.0000E+00  0.2000E+01
    -23.581  0.0000E+00  0.2000E+01
    -23.481  0.0000E+00  0.2000E+01
    -23.380  0.0000E+00  0.2000E+01
    -23.280  0.0000E+00  0.2000E+01
    -23.180  0.0000E+00  0.2000E+01
    -23.079  0.0000E+00  0.2000E+01
    -22.979  0.0000E+00  0.2000E+01
    -22.878  0.0000E+00  0.2000E+01
    -22.778  0.0000E+00  0.2000E+01
    -22.678  0.0000E+00  0.2000E+01
    -22.577  0.0000E+00  0.2000E+01
    -22.477  0.0000E+00  0.2000E+01
    -22.376  0.0000E+00  0.2000E+01
    -22.276  0.0000E+00  0.2000E+01
    -22.176  0.0000E+00  0.2000E+01
    -22.075  0.0000E+00  0.2000E+01
    -21.975  0.0000E+00  0.2000E+01
    -21.874  0.0000E+00  0.2000E+01
    -21.774  0.0000E+00  0.2000E+01
    -21.674  0.0000E+00  0.2000E+01
    -21.573  0.0000E+00  0.2000E+01
    -21.473  0.0000E+00  0.2000E+01
    -21.372  0.0000E+00  0.2000E+01
    -21.272  0.0000E+00  0.2000E+01
    -21.172  0.0000E+00  0.2000E+01
    -21.071  0.0000E+00  0.2000E+01
    -20.971  0.0000E+00  0.2000E+01
    -20.870  0.0000E+00  0.2000E+01
    -20.770  0.0000E+00  0.2000E+01
    -20.670  0.0000E+00  0.2000E+01
    -20.569  0.0000E+00  0.2000E+01
    -20.469  0.0000E+00  0.2000E+01
    -20.368  0.0000E+00  0.2000E+01
    -20.268  0.0000E+00  0.2000E+01
    -20.168  0.0000E+00  0.2000E+01
    -20.067  0.0000E+00  0.2000E+01
    -19.967  0.0000E+00  0.2000E+01
    -19.866  0.0000E+00  0.2000E+01
    -19.766  0.0000E+00  0.2000E+01
    -19.666  0.0000E+00  0.2000E+01
    -19.565  0.0000E+00  0.2000E+01
    -19.465  0.0000E+00  0.2000E+01
    -19.364  0.0000E+00  0.2000E+01
    -19.264  0.0000E+00  0.2000E+01
    -19.164  0.0000E+00  0.2000E+01
    -19.063  0.0000E+00  0.2000E+01
    -18.963  0.0000E+00  0.2000E+01
    -18.863  0.0000E+00  0.2000E+01
    -18.762  0.0000E+00  0.2000E+01
    -18.662  0.0000E+00  0.2000E+01
    -18.561  0.0000E+00  0.2000E+01
    -18.461  0.0000E+00  0.2000E+01
    -18.361  0.0000E+00  0.2000E+01
    -18.260  0.0000E+00  0.2000E+01
    -18.160  0.0000E+00  0.2000E+01
    -18.059  0.0000E+00  0.2000E+01
    -17.959  0.0000E+00  0.2000E+01
    -17.859  0.0000E+00  0.2000E+01
    -17.758  0.0000E+00  0.2000E+01
    -17.658  0.0000E+00  0.2000E+01
    -17.557  0.0000E+00  0.2000E+01
    -17.457  0.0000E+00  0.2000E+01
    -17.357  0.0000E+00  0.2000E+01
    -17.256  0.0000E+00  0.2000E+01
    -17.156  0.0000E+00  0.2000E+01
    -17.055  0.0000E+00  0.2000E+01
    -16.955  0.0000E+00  0.2000E+01
    -16.855  0.0000E+00  0.2000E+01
    -16.754  0.0000E+00  0.2000E+01
    -16.654  0.0000E+00  0.2000E+01
    -16.553  0.0000E+00  0.2000E+01
    -16.453  0.0000E+00  0.2000E+01
    -16.353  0.0000E+00  0.2000E+01
    -16.252  0.0000E+00  0.2000E+01
    -16.152  0.0000E+00  0.2000E+01
    -16.051  0.0000E+00  0.2000E+01
    -15.951  0.0000E+00  0.2000E+01
    -15.851  0.0000E+00  0.2000E+01
    -15.750  0.0000E+00  0.2000E+01
    -15.650  0.0000E+00  0.2000E+01
    -15.549  0.0000E+00  0.2000E+01
    -15.449  0.0000E+00  0.2000E+01
    -15.349  0.0000E+00  0.2000E+01
    -15.248  0.0000E+00  0.2000E+01
    -15.148  0.0000E+00  0.2000E+01
    -15.047  0.0000E+00  0.2000E+01
    -14.947  0.0000E+00  0.2000E+01
    -14.847  0.0000E+00  0.2000E+01
    -14.746  0.0000E+00  0.2000E+01
    -14.646  0.0000E+00  0.2000E+01
    -14.545  0.0000E+00  0.2000E+01
    -14.445  0.0000E+00  0.2000E+01
    -14.345  0.0000E+00  0.2000E+01
    -14.244  0.0000E+00  0.2000E+01
    -14.144  0.0000E+00  0.2000E+01
    -14.043  0.0000E+00  0.2000E+01
    -13.943  0.0000E+00  0.2000E+01
    -13.843  0.0000E+00  0.2000E+01
    -13.742  0.5311E-16  0.2000E+01
    -13.642  0.4182E-11  0.2000E+01
    -13.541  0.3912E-07  0.2000E+01
    -13.441  0.4467E-04  0.2000E+01
    -13.341  0.6603E-02  0.2001E+01
    -13.240  0.1438E+00  0.2016E+01
    -13.140  0.6231E+00  0.2081E+01
    -13.039  0.1018E+01  0.2186E+01
    -12.939  0.1226E+01  0.2312E+01
    -12.839  0.1578E+01  0.2473E+01
    -12.738  0.2631E+01  0.2742E+01
    -12.638  0.3334E+01  0.3079E+01
    -12.537  0.3454E+01  0.3424E+01
    -12.437  0.2398E+01  0.3663E+01
    -12.337  0.1524E+01  0.3815E+01
    -12.236  0.1023E+01  0.3916E+01
    -12.136  0.5860E+00  0.3973E+01
    -12.035  0.2356E+00  0.3997E+01
    -11.935  0.3421E-01  0.4000E+01
    -11.835  0.1165E-02  0.4000E+01
    -11.734  0.7480E-05  0.4000E+01
    -11.634  0.8156E-08  0.4000E+01
    -11.533  0.1435E-11  0.4000E+01
    -11.433  0.4549E-16  0.4000E+01
    -11.333  0.0000E+00  0.4000E+01
    -11.232  0.0000E+00  0.4000E+01
    -11.132  0.0000E+00  0.4000E+01
    -11.031  0.0000E+00  0.4000E+01
    -10.931  0.0000E+00  0.4000E+01
    -10.831  0.0000E+00  0.4000E+01
    -10.730  0.0000E+00  0.4000E+01
    -10.630  0.0000E+00  0.4000E+01
    -10.530  0.0000E+00  0.4000E+01
    -10.429  0.0000E+00  0.4000E+01
    -10.329  0.0000E+00  0.4000E+01
    -10.228  0.0000E+00  0.4000E+01
    -10.128  0.0000E+00  0.4000E+01
    -10.028  0.0000E+00  0.4000E+01
     -9.927  0.9258E-15  0.4000E+01
     -9.827  0.2444E-10  0.4000E+01
     -9.726  0.1008E-06  0.4000E+01
     -9.626  0.6759E-04  0.4000E+01
     -9.526  0.7964E-02  0.4001E+01
     -9.425  0.1901E+00  0.4020E+01
     -9.325  0.1131E+01  0.4131E+01
     -9.224  0.2236E+01  0.4353E+01
     -9.124  0.2498E+01  0.4602E+01
     -9.024  0.2840E+01  0.4888E+01
     -8.923  0.3138E+01  0.5206E+01
     -8.823  0.3039E+01  0.5513E+01
     -8.722  0.2459E+01  0.5765E+01
     -8.622  0.1676E+01  0.5938E+01
     -8.522  0.5492E+00  0.5995E+01
     -8.421  0.5084E-01  0.6000E+01
     -8.321  0.1069E-02  0.6000E+01
     -8.220  0.4035E-05  0.6000E+01
     -8.120  0.2208E-08  0.6000E+01
     -8.020  0.1556E-12  0.6000E+01
     -7.919  0.0000E+00  0.6000E+01
     -7.819  0.0000E+00  0.6000E+01
     -7.718  0.0000E+00  0.6000E+01
     -7.618  0.4397E-12  0.6000E+01
     -7.518  0.4216E-08  0.6000E+01
     -7.417  0.6365E-05  0.6000E+01
     -7.317  0.1617E-02  0.6000E+01
     -7.216  0.7763E-01  0.6008E+01
     -7.116  0.8612E+00  0.6093E+01
     -7.016  0.3088E+01  0.6401E+01
     -6.915  0.5484E+01  0.6952E+01
     -6.815  0.5983E+01  0.7559E+01
     -6.714  0.3469E+01  0.7913E+01
     -6.614  0.7973E+00  0.7994E+01
     -6.514  0.5363E-01  0.8000E+01
     -6.413  0.8146E-03  0.8000E+01
     -6.313  0.2157E-05  0.8000E+01
     -6.212  0.8177E-09  0.8000E+01
     -6.112  0.3994E-13  0.8000E+01
     -6.012  0.0000E+00  0.8000E+01
     -5.911  0.0000E+00  0.8000E+01
     -5.811  0.0000E+00  0.8000E+01
     -5.710  0.0000E+00  0.8000E+01
     -5.610  0.0000E+00  0.8000E+01
     -5.510  0.0000E+00  0.8000E+01
     -5.409  0.0000E+00  0.8000E+01
     -5.309  0.0000E+00  0.8000E+01
     -5.208  0.0000E+00  0.8000E+01
     -5.108  0.0000E+00  0.8000E+01
     -5.008  0.0000E+00  0.8000E+01
     -4.907  0.0000E+00  0.8000E+01
     -4.807  0.0000E+00  0.8000E+01
     -4.706  0.0000E+00  0.8000E+01
     -4.606  0.0000E+00  0.8000E+01
     -4.506  0.0000E+00  0.8000E+01
     -4.405  0.0000E+00  0.8000E+01
     -4.305  0.0000E+00  0.8000E+01
     -4.204  0.0000E+00  0.8000E+01
     -4.104  0.0000E+00  0.8000E+01
     -4.004  0.0000E+00  0.8000E+01
     -3.903  0.0000E+00  0.8000E+01
     -3.803  0.0000E+00  0.8000E+01
     -3.702  0.0000E+00  0.8000E+01
     -3.602  0.0000E+00  0.8000E+01
     -3.502  0.0000E+00  0.8000E+01
     -3.401  0.0000E+00  0.8000E+01
     -3.301  0.0000E+00  0.8000E+01
     -3.200  0.0000E+00  0.8000E+01
     -3.100  0.0000E+00  0.8000E+01
     -3.000  0.0000E+00  0.8000E+01
     -2.899  0.0000E+00  0.8000E+01
     -2.799  0.0000E+00  0.8000E+01
     -2.698  0.0000E+00  0.8000E+01
     -2.598  0.0000E+00  0.8000E+01
     -2.498  0.0000E+00  0.8000E+01
     -2.397  0.1991E-14  0.8000E+01
     -2.297  0.4908E-10  0.8000E+01
     -2.196  0.1829E-06  0.8000E+01
     -2.096  0.1077E-03  0.8000E+01
     -1.996  0.1072E-01  0.8001E+01
     -1.895  0.2057E+00  0.8021E+01
     -1.795  0.1004E+01  0.8120E+01
     -1.695  0.2043E+01  0.8322E+01
     -1.594  0.2636E+01  0.8583E+01
     -1.494  0.2798E+01  0.8861E+01
     -1.393  0.2651E+01  0.9128E+01
     -1.293  0.2837E+01  0.9418E+01
     -1.193  0.2930E+01  0.9720E+01
     -1.092  0.1958E+01  0.9923E+01
     -0.992  0.6654E+00  0.9992E+01
     -0.891  0.7512E-01  0.1000E+02
     -0.791  0.2054E-02  0.1000E+02
     -0.691  0.1031E-04  0.1000E+02
     -0.590  0.7563E-08  0.1000E+02
     -0.490  0.7165E-12  0.1000E+02
     -0.389  0.0000E+00  0.1000E+02
     -0.289  0.0000E+00  0.1000E+02
     -0.189  0.0000E+00  0.1000E+02
     -0.088  0.0000E+00  0.1000E+02
      0.012  0.0000E+00  0.1000E+02
      0.113  0.0000E+00  0.1000E+02
      0.213  0.0000E+00  0.1000E+02
      0.313  0.0000E+00  0.1000E+02
      0.414  0.1384E-13  0.1000E+02
      0.514  0.2379E-09  0.1000E+02
      0.615  0.6134E-06  0.1000E+02
      0.715  0.2450E-03  0.1000E+02
      0.815  0.1626E-01  0.1000E+02
      0.916  0.2080E+00  0.1002E+02
      1.016  0.6748E+00  0.1009E+02
      1.117  0.8944E+00  0.1018E+02
      1.217  0.1087E+01  0.1028E+02
      1.317  0.1293E+01  0.1041E+02
      1.418  0.1466E+01  0.1056E+02
      1.518  0.1767E+01  0.1073E+02
      1.619  0.2835E+01  0.1102E+02
      1.719  0.4241E+01  0.1144E+02
      1.819  0.4716E+01  0.1191E+02
      1.920  0.4755E+01  0.1239E+02
      2.020  0.4853E+01  0.1289E+02
      2.121  0.5065E+01  0.1341E+02
      2.221  0.3801E+01  0.1380E+02
      2.321  0.1513E+01  0.1395E+02
      2.422  0.8969E+00  0.1405E+02
      2.522  0.5529E+01  0.1460E+02
      2.623  0.1023E+02  0.1564E+02
      2.723  0.3410E+01  0.1598E+02
      2.823  0.1934E+00  0.1600E+02
      2.924  0.1758E-02  0.1600E+02
      3.024  0.2511E-05  0.1600E+02
      3.125  0.5678E-09  0.1600E+02
      3.225  0.2017E-13  0.1600E+02
      3.325  0.0000E+00  0.1600E+02
      3.426  0.0000E+00  0.1600E+02
      3.526  0.0000E+00  0.1600E+02
      3.627  0.0000E+00  0.1600E+02
      3.727  0.0000E+00  0.1600E+02
      3.827  0.0000E+00  0.1600E+02
      3.928  0.0000E+00  0.1600E+02
      3.84496467    -25.71527271  301     -6.20243685      1.00000000
    -25.715  0.0000E+00  0.0000E+00
    -25.617  0.0000E+00  0.0000E+00
    -25.518  0.0000E+00  0.0000E+00
    -25.420  0.0000E+00  0.0000E+00
    -25.321  0.0000E+00  0.0000E+00
    -25.223  0.0000E+00  0.0000E+00
    -25.124  0.0000E+00  0.0000E+00
    -25.026  0.0000E+00  0.0000E+00
    -24.927  0.4056E-15  0.3997E-16
    -24.828  0.1058E-10  0.1042E-11
    -24.730  0.4096E-07  0.4037E-08
    -24.631  0.2422E-04  0.2390E-05
    -24.533  0.2269E-02  0.2259E-03
    -24.434  0.3579E-01  0.3752E-02
    -24.336  0.1028E+00  0.1388E-01
    -24.237  0.5632E-01  0.1943E-01
    -24.139  0.5726E-02  0.1999E-01
    -24.040  0.1001E-03  0.2000E-01
    -23.942  0.2810E-06  0.2000E-01
    -23.843  0.1215E-09  0.2000E-01
    -23.745  0.7887E-14  0.2000E-01
    -23.646  0.0000E+00  0.2000E-01
    -23.548  0.0000E+00  0.2000E-01
    -23.449  0.0000E+00  0.2000E-01
    -23.350  0.0000E+00  0.2000E-01
    -23.252  0.0000E+00  0.2000E-01
    -23.153  0.0000E+00  0.2000E-01
    -23.055  0.0000E+00  0.2000E-01
    -22.956  0.0000E+00  0.2000E-01
    -22.858  0.0000E+00  0.2000E-01
    -22.759  0.0000E+00  0.2000E-01
    -22.661  0.0000E+00  0.2000E-01
    -22.562  0.0000E+00  0.2000E-01
    -22.464  0.0000E+00  0.2000E-01
    -22.365  0.0000E+00  0.2000E-01
    -22.267  0.0000E+00  0.2000E-01
    -22.168  0.0000E+00  0.2000E-01
    -22.070  0.0000E+00  0.2000E-01
    -21.971  0.0000E+00  0.2000E-01
    -21.872  0.0000E+00  0.2000E-01
    -21.774  0.0000E+00  0.2000E-01
    -21.675  0.0000E+00  0.2000E-01
    -21.577  0.0000E+00  0.2000E-01
    -21.478  0.0000E+00  0.2000E-01
    -21.380  0.0000E+00  0.2000E-01
    -21.281  0.0000E+00  0.2000E-01
    -21.183  0.0000E+00  0.2000E-01
    -21.084  0.0000E+00  0.2000E-01
    -20.986  0.0000E+00  0.2000E-01
    -20.887  0.0000E+00  0.2000E-01
    -20.789  0.0000E+00  0.2000E-01
    -20.690  0.0000E+00  0.2000E-01
    -20.591  0.0000E+00  0.2000E-01
    -20.493  0.0000E+00  0.2000E-01
    -20.394  0.0000E+00  0.2000E-01
    -20.296  0.0000E+00  0.2000E-01
    -20.197  0.0000E+00  0.2000E-01
    -20.099  0.0000E+00  0.2000E-01
    -20.000  0.0000E+00  0.2000E-01
    -19.902  0.0000E+00  0.2000E-01
    -19.803  0.0000E+00  0.2000E-01
    -19.705  0.0000E+00  0.2000E-01
    -19.606  0.0000E+00  0.2000E-01
    -19.508  0.0000E+00  0.2000E-01
    -19.409  0.0000E+00  0.2000E-01
    -19.311  0.0000E+00  0.2000E-01
    -19.212  0.0000E+00  0.2000E-01
    -19.113  0.0000E+00  0.2000E-01
    -19.015  0.0000E+00  0.2000E-01
    -18.916  0.0000E+00  0.2000E-01
    -18.818  0.0000E+00  0.2000E-01
    -18.719  0.0000E+00  0.2000E-01
    -18.621  0.0000E+00  0.2000E-01
    -18.522  0.0000E+00  0.2000E-01
    -18.424  0.0000E+00  0.2000E-01
    -18.325  0.0000E+00  0.2000E-01
    -18.227  0.0000E+00  0.2000E-01
    -18.128  0.0000E+00  0.2000E-01
    -18.030  0.0000E+00  0.2000E-01
    -17.931  0.0000E+00  0.2000E-01
    -17.833  0.0000E+00  0.2000E-01
    -17.734  0.0000E+00  0.2000E-01
    -17.635  0.0000E+00  0.2000E-01
    -17.537  0.0000E+00  0.2000E-01
    -17.438  0.0000E+00  0.2000E-01
    -17.340  0.0000E+00  0.2000E-01
    -17.241  0.0000E+00  0.2000E-01
    -17.143  0.0000E+00  0.2000E-01
    -17.044  0.0000E+00  0.2000E-01
    -16.946  0.0000E+00  0.2000E-01
    -16.847  0.0000E+00  0.2000E-01
    -16.749  0.0000E+00  0.2000E-01
    -16.650  0.0000E+00  0.2000E-01
    -16.552  0.0000E+00  0.2000E-01
    -16.453  0.0000E+00  0.2000E-01
    -16.355  0.0000E+00  0.2000E-01
    -16.256  0.0000E+00  0.2000E-01
    -16.157  0.0000E+00  0.2000E-01
    -16.059  0.0000E+00  0.2000E-01
    -15.960  0.0000E+00  0.2000E-01
    -15.862  0.0000E+00  0.2000E-01
    -15.763  0.0000E+00  0.2000E-01
    -15.665  0.0000E+00  0.2000E-01
    -15.566  0.0000E+00  0.2000E-01
    -15.468  0.0000E+00  0.2000E-01
    -15.369  0.0000E+00  0.2000E-01
    -15.271  0.0000E+00  0.2000E-01
    -15.172  0.0000E+00  0.2000E-01
    -15.074  0.0000E+00  0.2000E-01
    -14.975  0.0000E+00  0.2000E-01
    -14.877  0.0000E+00  0.2000E-01
    -14.778  0.0000E+00  0.2000E-01
    -14.679  0.0000E+00  0.2000E-01
    -14.581  0.0000E+00  0.2000E-01
    -14.482  0.0000E+00  0.2000E-01
    -14.384  0.0000E+00  0.2000E-01
    -14.285  0.0000E+00  0.2000E-01
    -14.187  0.0000E+00  0.2000E-01
    -14.088  0.0000E+00  0.2000E-01
    -13.990  0.0000E+00  0.2000E-01
    -13.891  0.0000E+00  0.2000E-01
    -13.793  0.0000E+00  0.2000E-01
    -13.694  0.0000E+00  0.2000E-01
    -13.596  0.0000E+00  0.2000E-01
    -13.497  0.0000E+00  0.2000E-01
    -13.399  0.0000E+00  0.2000E-01
    -13.300  0.0000E+00  0.2000E-01
    -13.201  0.0000E+00  0.2000E-01
    -13.103  0.0000E+00  0.2000E-01
    -13.004  0.0000E+00  0.2000E-01
    -12.906  0.0000E+00  0.2000E-01
    -12.807  0.0000E+00  0.2000E-01
    -12.709  0.0000E+00  0.2000E-01
    -12.610  0.0000E+00  0.2000E-01
    -12.512  0.1104E-14  0.2000E-01
    -12.413  0.2412E-10  0.2000E-01
    -12.315  0.7873E-07  0.2000E-01
    -12.216  0.3934E-04  0.2000E-01
    -12.118  0.3128E-02  0.2031E-01
    -12.019  0.4217E-01  0.2447E-01
    -11.920  0.1042E+00  0.3473E-01
    -11.822  0.4914E-01  0.3957E-01
    -11.723  0.4275E-02  0.3999E-01
    -11.625  0.6350E-04  0.4000E-01
    -11.526  0.1508E-06  0.4000E-01
    -11.428  0.5496E-10  0.4000E-01
    -11.329  0.3020E-14  0.4000E-01
    -11.231  0.0000E+00  0.4000E-01
    -11.132  0.0000E+00  0.4000E-01
    -11.034  0.0000E+00  0.4000E-01
    -10.935  0.0000E+00  0.4000E-01
    -10.837  0.0000E+00  0.4000E-01
    -10.738  0.0000E+00  0.4000E-01
    -10.640  0.0000E+00  0.4000E-01
    -10.541  0.0000E+00  0.4000E-01
    -10.442  0.0000E+00  0.4000E-01
    -10.344  0.0000E+00  0.4000E-01
    -10.245  0.0000E+00  0.4000E-01
    -10.147  0.0000E+00  0.4000E-01
    -10.048  0.0000E+00  0.4000E-01
     -9.950  0.0000E+00  0.4000E-01
     -9.851  0.0000E+00  0.4000E-01
     -9.753  0.0000E+00  0.4000E-01
     -9.654  0.0000E+00  0.4000E-01
     -9.556  0.2711E-12  0.4000E-01
     -9.457  0.2169E-08  0.4000E-01
     -9.359  0.2624E-05  0.4000E-01
     -9.260  0.4946E-03  0.4005E-01
     -9.162  0.1529E-01  0.4156E-01
     -9.063  0.8354E-01  0.4979E-01
     -8.964  0.8622E-01  0.5828E-01
     -8.866  0.1684E-01  0.5994E-01
     -8.767  0.5826E-03  0.6000E-01
     -8.669  0.3315E-05  0.6000E-01
     -8.570  0.2943E-08  0.6000E-01
     -8.472  0.3956E-12  0.6000E-01
     -8.373  0.0000E+00  0.6000E-01
     -8.275  0.0000E+00  0.6000E-01
     -8.176  0.0000E+00  0.6000E-01
     -8.078  0.0000E+00  0.6000E-01
     -7.979  0.0000E+00  0.6000E-01
     -7.881  0.0000E+00  0.6000E-01
     -7.782  0.0000E+00  0.6000E-01
     -7.684  0.0000E+00  0.6000E-01
     -7.585  0.0000E+00  0.6000E-01
     -7.486  0.0000E+00  0.6000E-01
     -7.388  0.0000E+00  0.6000E-01
     -7.289  0.2287E-14  0.6000E-01
     -7.191  0.4386E-10  0.6000E-01
     -7.092  0.1262E-06  0.6000E-01
     -6.994  0.5573E-04  0.6001E-01
     -6.895  0.3928E-02  0.6039E-01
     -6.797  0.4718E-01  0.6504E-01
     -6.698  0.1043E+00  0.7532E-01
     -6.600  0.4405E-01  0.7966E-01
     -6.501  0.3415E-02  0.8000E-01
     -6.403  0.4497E-04  0.8000E-01
     -6.304  0.9434E-07  0.8000E-01
     -6.206  0.3032E-10  0.8000E-01
     -6.107  0.1465E-14  0.8000E-01
     -6.008  0.0000E+00  0.8000E-01
     -5.910  0.0000E+00  0.8000E-01
     -5.811  0.0000E+00  0.8000E-01
     -5.713  0.0000E+00  0.8000E-01
     -5.614  0.0000E+00  0.8000E-01
     -5.516  0.0000E+00  0.8000E-01
     -5.417  0.0000E+00  0.8000E-01
     -5.319  0.0000E+00  0.8000E-01
     -5.220  0.0000E+00  0.8000E-01
     -5.122  0.0000E+00  0.8000E-01
     -5.023  0.0000E+00  0.8000E-01
     -4.925  0.0000E+00  0.8000E-01
     -4.826  0.0000E+00  0.8000E-01
     -4.728  0.0000E+00  0.8000E-01
     -4.629  0.0000E+00  0.8000E-01
     -4.530  0.0000E+00  0.8000E-01
     -4.432  0.0000E+00  0.8000E-01
     -4.333  0.0000E+00  0.8000E-01
     -4.235  0.0000E+00  0.8000E-01
     -4.136  0.0000E+00  0.8000E-01
     -4.038  0.0000E+00  0.8000E-01
     -3.939  0.0000E+00  0.8000E-01
     -3.841  0.0000E+00  0.8000E-01
     -3.742  0.0000E+00  0.8000E-01
     -3.644  0.0000E+00  0.8000E-01
     -3.545  0.0000E+00  0.8000E-01
     -3.447  0.0000E+00  0.8000E-01
     -3.348  0.0000E+00  0.8000E-01
     -3.249  0.0000E+00  0.8000E-01
     -3.151  0.0000E+00  0.8000E-01
     -3.052  0.0000E+00  0.8000E-01
     -2.954  0.0000E+00  0.8000E-01
     -2.855  0.0000E+00  0.8000E-01
     -2.757  0.0000E+00  0.8000E-01
     -2.658  0.0000E+00  0.8000E-01
     -2.560  0.0000E+00  0.8000E-01
     -2.461  0.0000E+00  0.8000E-01
     -2.363  0.0000E+00  0.8000E-01
     -2.264  0.0000E+00  0.8000E-01
     -2.166  0.0000E+00  0.8000E-01
     -2.067  0.0000E+00  0.8000E-01
     -1.969  0.4417E-14  0.8000E-01
     -1.870  0.7545E-10  0.8000E-01
     -1.771  0.1934E-06  0.8000E-01
     -1.673  0.7621E-04  0.8001E-01
     -1.574  0.4810E-02  0.8048E-01
     -1.476  0.5196E-01  0.8560E-01
     -1.377  0.1038E+00  0.9583E-01
     -1.279  0.3957E-01  0.9973E-01
     -1.180  0.2758E-02  0.1000E+00
     -1.082  0.3250E-04  0.1000E+00
     -0.983  0.6084E-07  0.1000E+00
     -0.885  0.1742E-10  0.1000E+00
     -0.786  0.7436E-15  0.1000E+00
     -0.688  0.0000E+00  0.1000E+00
     -0.589  0.0000E+00  0.1000E+00
     -0.491  0.0000E+00  0.1000E+00
     -0.392  0.0000E+00  0.1000E+00
     -0.293  0.0000E+00  0.1000E+00
     -0.195  0.0000E+00  0.1000E+00
     -0.096  0.0000E+00  0.1000E+00
      0.002  0.0000E+00  0.1000E+00
      0.101  0.0000E+00  0.1000E+00
      0.199  0.0000E+00  0.1000E+00
      0.298  0.0000E+00  0.1000E+00
      0.396  0.0000E+00  0.1000E+00
      0.495  0.0000E+00  0.1000E+00
      0.593  0.0000E+00  0.1000E+00
      0.692  0.0000E+00  0.1000E+00
      0.790  0.0000E+00  0.1000E+00
      0.889  0.0000E+00  0.1000E+00
      0.987  0.0000E+00  0.1000E+00
      1.086  0.0000E+00  0.1000E+00
      1.185  0.2788E-13  0.1000E+00
      1.283  0.3414E-09  0.1000E+00
      1.382  0.6293E-06  0.1000E+00
      1.480  0.1793E-03  0.1000E+00
      1.579  0.8266E-02  0.1008E+00
      1.677  0.6633E-01  0.1074E+00
      1.776  0.1078E+00  0.1180E+00
      1.874  0.9666E-01  0.1275E+00
      1.973  0.9896E-01  0.1373E+00
      2.071  0.2643E-01  0.1399E+00
      2.170  0.1289E-02  0.1400E+00
      2.268  0.1105E-03  0.1400E+00
      2.367  0.5726E-02  0.1406E+00
      2.465  0.5632E-01  0.1461E+00
      2.564  0.1028E+00  0.1562E+00
      2.663  0.3579E-01  0.1598E+00
      2.761  0.2269E-02  0.1600E+00
      2.860  0.2422E-04  0.1600E+00
      2.958  0.4096E-07  0.1600E+00
      3.057  0.1058E-10  0.1600E+00
      3.155  0.4056E-15  0.1600E+00
      3.254  0.0000E+00  0.1600E+00
      3.352  0.0000E+00  0.1600E+00
      3.451  0.0000E+00  0.1600E+00
      3.549  0.0000E+00  0.1600E+00
      3.648  0.0000E+00  0.1600E+00
      3.746  0.0000E+00  0.1600E+00
      3.845  0.0000E+00  0.1600E+00
