    3    3  100    1
  0.8535574E+02  0.6350160E-09  0.6350160E-09  0.6350160E-09  0.1000000E-14
   2000.0000000000000     
  CAR 
 unknown system                          
      8      1      8

  0.0000000E+00  0.0000000E+00  0.0000000E+00  0.1000000E+01
    1      -24.371626   1.000000
    2      -11.965229   1.000000
    3       -9.061125   1.000000
    4       -6.749486   1.000000
    5       -1.434681   0.000000
    6        1.701174   0.000000
    7        1.895325   0.000000
    8        2.501318   0.000000
