       N       E                     dE             d eps       ncg     rms          rms(c)
DAV:   1     0.394492218774E+02    0.39449E+02   -0.18179E+03    16   0.457E+02
DAV:   2    -0.129611563730E+02   -0.52410E+02   -0.52410E+02    32   0.122E+02
DAV:   3    -0.162910023184E+02   -0.33298E+01   -0.33298E+01    16   0.425E+01
DAV:   4    -0.163246309964E+02   -0.33629E-01   -0.33629E-01    24   0.396E+00
DAV:   5    -0.163246739556E+02   -0.42959E-04   -0.42959E-04    32   0.117E-01    0.787E+00
DAV:   6    -0.143742567811E+02    0.19504E+01   -0.93979E+00    16   0.218E+01    0.303E+00
DAV:   7    -0.142631339751E+02    0.11112E+00   -0.15236E-01    24   0.286E+00    0.188E+00
DAV:   8    -0.141879106732E+02    0.75223E-01   -0.67470E-02    16   0.262E+00    0.224E-01
DAV:   9    -0.141938375354E+02   -0.59269E-02   -0.94525E-03    24   0.618E-01    0.158E-01
DAV:  10    -0.142025945560E+02   -0.87570E-02   -0.43151E-03    16   0.581E-01    0.661E-02
DAV:  11    -0.142054259418E+02   -0.28314E-02   -0.22384E-03    24   0.298E-01    0.595E-02
DAV:  12    -0.142068314264E+02   -0.14055E-02   -0.66260E-04    24   0.159E-01    0.166E-02
DAV:  13    -0.142071137319E+02   -0.28231E-03   -0.62283E-05    24   0.612E-02    0.786E-03
DAV:  14    -0.142071982595E+02   -0.84528E-04   -0.10016E-05    24   0.210E-02
    1 T=  2154. E= -.13650472E+02 F= -.14207198E+02 E0= -.14207198E+02  EK= 0.55673E+00 SP= 0.00E+00 SK= 0.00E+00
       N       E                     dE             d eps       ncg     rms          rms(c)
DAV:   1    -0.141723955667E+02    0.34718E-01   -0.50391E+00    16   0.227E+01    0.100E+00
DAV:   2    -0.141609896979E+02    0.11406E-01   -0.16870E-01    24   0.338E+00    0.405E-01
DAV:   3    -0.141594108568E+02    0.15788E-02   -0.32524E-03    24   0.579E-01    0.210E-01
DAV:   4    -0.141593262600E+02    0.84597E-04   -0.20594E-03    24   0.477E-01    0.379E-02
DAV:   5    -0.141594570613E+02   -0.13080E-03   -0.25410E-04    16   0.151E-01    0.174E-02
DAV:   6    -0.141595584679E+02   -0.10141E-03   -0.20681E-05    16   0.452E-02    0.699E-03
DAV:   7    -0.141596429742E+02   -0.84506E-04   -0.23435E-05    24   0.318E-02
    2 T=  2016. E= -.13638335E+02 F= -.14159643E+02 E0= -.14159643E+02  EK= 0.52131E+00 SP= 0.00E+00 SK= 0.00E+00
       N       E                     dE             d eps       ncg     rms          rms(c)
DAV:   1    -0.139847225222E+02    0.17484E+00   -0.33221E-01    24   0.703E+00    0.195E-01
DAV:   2    -0.139856994661E+02   -0.97694E-03   -0.15303E-02    16   0.124E+00    0.828E-02
DAV:   3    -0.139857161394E+02   -0.16673E-04   -0.15419E-04    32   0.122E-01
    3 T=  1403. E= -.13622918E+02 F= -.13985716E+02 E0= -.13985716E+02  EK= 0.36280E+00 SP= 0.00E+00 SK= 0.00E+00
       N       E                     dE             d eps       ncg     rms          rms(c)
DAV:   1    -0.139131164695E+02    0.72583E-01   -0.24611E-01    16   0.629E+00    0.158E-01
DAV:   2    -0.139140931538E+02   -0.97668E-03   -0.13223E-02    24   0.106E+00    0.128E-01
DAV:   3    -0.139139665154E+02    0.12664E-03   -0.67749E-04    24   0.234E-01    0.510E-02
DAV:   4    -0.139139892636E+02   -0.22748E-04   -0.12264E-04    24   0.966E-02
    4 T=  1143. E= -.13618472E+02 F= -.13913989E+02 E0= -.13913989E+02  EK= 0.29552E+00 SP= 0.00E+00 SK= 0.00E+00
       N       E                     dE             d eps       ncg     rms          rms(c)
DAV:   1    -0.140179947266E+02   -0.10403E+00   -0.16414E-01    24   0.280E+00    0.101E-01
DAV:   2    -0.140182070499E+02   -0.21232E-03   -0.23811E-03    16   0.497E-01    0.545E-02
DAV:   3    -0.140182543450E+02   -0.47295E-04   -0.56011E-05    24   0.666E-02
    5 T=  1519. E= -.13625487E+02 F= -.14018254E+02 E0= -.14018254E+02  EK= 0.39277E+00 SP= 0.00E+00 SK= 0.00E+00
       N       E                     dE             d eps       ncg     rms          rms(c)
DAV:   1    -0.141850341719E+02   -0.16683E+00   -0.49551E-01    16   0.423E+00    0.700E-02
DAV:   2    -0.141859459263E+02   -0.91175E-03   -0.86801E-03    24   0.804E-01    0.844E-02
DAV:   3    -0.141859228717E+02    0.23055E-04   -0.30263E-05    24   0.450E-02
    6 T=  2104. E= -.13641971E+02 F= -.14185923E+02 E0= -.14185923E+02  EK= 0.54395E+00 SP= 0.00E+00 SK= 0.00E+00
       N       E                     dE             d eps       ncg     rms          rms(c)
DAV:   1    -0.141686477267E+02    0.17298E-01   -0.77031E-01    16   0.613E+00    0.175E-01
DAV:   2    -0.141698673209E+02   -0.12196E-02   -0.14119E-02    16   0.109E+00    0.146E-01
DAV:   3    -0.141698867462E+02   -0.19425E-04   -0.10711E-03    32   0.253E-01    0.528E-02
DAV:   4    -0.141698832273E+02    0.35188E-05   -0.26521E-04    16   0.113E-01
    7 T=  2022. E= -.13647240E+02 F= -.14169883E+02 E0= -.14169883E+02  EK= 0.52264E+00 SP= 0.00E+00 SK= 0.00E+00
       N       E                     dE             d eps       ncg     rms          rms(c)
DAV:   1    -0.139534266586E+02    0.21646E+00   -0.92798E-01    16   0.928E+00    0.300E-01
DAV:   2    -0.139538231961E+02   -0.39654E-03   -0.78122E-03    16   0.846E-01    0.193E-01
DAV:   3    -0.139540584746E+02   -0.23528E-03   -0.24888E-03    16   0.405E-01    0.736E-02
DAV:   4    -0.139539447325E+02    0.11374E-03   -0.50701E-04    32   0.179E-01    0.247E-02
DAV:   5    -0.139539662018E+02   -0.21469E-04   -0.29541E-05    32   0.418E-02
    8 T=  1332. E= -.13609580E+02 F= -.13953966E+02 E0= -.13953966E+02  EK= 0.34439E+00 SP= 0.00E+00 SK= 0.00E+00
       N       E                     dE             d eps       ncg     rms          rms(c)
DAV:   1    -0.140208490483E+02   -0.66904E-01   -0.20249E+00    16   0.166E+01    0.614E-01
DAV:   2    -0.140196924960E+02    0.11566E-02   -0.41827E-02    16   0.193E+00    0.304E-01
DAV:   3    -0.140198456261E+02   -0.15313E-03   -0.17045E-03    24   0.354E-01    0.132E-01
DAV:   4    -0.140200401115E+02   -0.19449E-03   -0.53761E-04    16   0.187E-01    0.364E-02
DAV:   5    -0.140200508933E+02   -0.10782E-04   -0.10293E-04    24   0.851E-02
    9 T=  1534. E= -.13623420E+02 F= -.14020051E+02 E0= -.14020051E+02  EK= 0.39663E+00 SP= 0.00E+00 SK= 0.00E+00
       N       E                     dE             d eps       ncg     rms          rms(c)
DAV:   1    -0.142130636120E+02   -0.19302E+00   -0.19930E-01    24   0.548E+00    0.125E-01
DAV:   2    -0.142146973974E+02   -0.16338E-02   -0.16708E-02    16   0.131E+00    0.970E-02
DAV:   3    -0.142147083727E+02   -0.10975E-04   -0.13757E-04    24   0.116E-01
   10 T=  2189. E= -.13648931E+02 F= -.14214708E+02 E0= -.14214708E+02  EK= 0.56578E+00 SP= 0.00E+00 SK= 0.00E+00
       N       E                     dE             d eps       ncg     rms          rms(c)
DAV:   1    -0.141523958128E+02    0.62302E-01   -0.26136E-01    16   0.613E+00    0.195E-01
DAV:   2    -0.141534430280E+02   -0.10472E-02   -0.16517E-02    16   0.139E+00    0.968E-02
DAV:   3    -0.141534362816E+02    0.67463E-05   -0.17347E-04    32   0.141E-01
   11 T=  2005. E= -.13635190E+02 F= -.14153436E+02 E0= -.14153436E+02  EK= 0.51825E+00 SP= 0.00E+00 SK= 0.00E+00
       N       E                     dE             d eps       ncg     rms          rms(c)
DAV:   1    -0.139829524520E+02    0.17049E+00   -0.52637E-01    16   0.977E+00    0.405E-01
DAV:   2    -0.139830651467E+02   -0.11269E-03   -0.22082E-02    24   0.144E+00    0.189E-01
DAV:   3    -0.139830506406E+02    0.14506E-04   -0.54861E-04    24   0.263E-01
   12 T=  1402. E= -.13620713E+02 F= -.13983051E+02 E0= -.13983051E+02  EK= 0.36234E+00 SP= 0.00E+00 SK= 0.00E+00
       N       E                     dE             d eps       ncg     rms          rms(c)
DAV:   1    -0.139249321277E+02    0.58133E-01   -0.17900E-01    24   0.542E+00    0.194E-01
DAV:   2    -0.139249202464E+02    0.11881E-04   -0.91051E-03    24   0.928E-01    0.109E-01
DAV:   3    -0.139248069460E+02    0.11330E-03   -0.25078E-04    32   0.170E-01    0.521E-02
DAV:   4    -0.139248144253E+02   -0.74793E-05   -0.14112E-04    32   0.128E-01
   13 T=  1189. E= -.13617394E+02 F= -.13924814E+02 E0= -.13924814E+02  EK= 0.30742E+00 SP= 0.00E+00 SK= 0.00E+00
       N       E                     dE             d eps       ncg     rms          rms(c)
DAV:   1    -0.140371176414E+02   -0.11231E+00   -0.17980E-01    24   0.258E+00    0.915E-02
DAV:   2    -0.140373489693E+02   -0.23133E-03   -0.17330E-03    32   0.422E-01    0.555E-02
DAV:   3    -0.140374353480E+02   -0.86379E-04   -0.11109E-04    32   0.797E-02
   14 T=  1594. E= -.13625229E+02 F= -.14037435E+02 E0= -.14037435E+02  EK= 0.41221E+00 SP= 0.00E+00 SK= 0.00E+00
       N       E                     dE             d eps       ncg     rms          rms(c)
DAV:   1    -0.141951112906E+02   -0.15776E+00   -0.54300E-01    16   0.452E+00    0.685E-02
DAV:   2    -0.141962785904E+02   -0.11673E-02   -0.10704E-02    32   0.891E-01    0.921E-02
DAV:   3    -0.141962624121E+02    0.16178E-04   -0.16835E-05    32   0.333E-02
   15 T=  2146. E= -.13641432E+02 F= -.14196262E+02 E0= -.14196262E+02  EK= 0.55483E+00 SP= 0.00E+00 SK= 0.00E+00
       N       E                     dE             d eps       ncg     rms          rms(c)
DAV:   1    -0.141579822111E+02    0.38296E-01   -0.80513E-01    16   0.636E+00    0.193E-01
DAV:   2    -0.141591536808E+02   -0.11715E-02   -0.15337E-02    16   0.115E+00    0.149E-01
DAV:   3    -0.141591932861E+02   -0.39605E-04   -0.82756E-04    24   0.226E-01
   16 T=  1991. E= -.13644397E+02 F= -.14159193E+02 E0= -.14159193E+02  EK= 0.51480E+00 SP= 0.00E+00 SK= 0.00E+00
       N       E                     dE             d eps       ncg     rms          rms(c)
DAV:   1    -0.139501427620E+02    0.20901E+00   -0.11096E+00    16   0.103E+01    0.398E-01
DAV:   2    -0.139500088660E+02    0.13390E-03   -0.88404E-03    16   0.884E-01    0.231E-01
DAV:   3    -0.139503561919E+02   -0.34733E-03   -0.22509E-03    16   0.386E-01    0.697E-02
DAV:   4    -0.139503322641E+02    0.23928E-04   -0.12804E-03    32   0.265E-01    0.554E-02
DAV:   5    -0.139503539756E+02   -0.21711E-04   -0.18030E-04    16   0.107E-01
   17 T=  1324. E= -.13607949E+02 F= -.13950354E+02 E0= -.13950354E+02  EK= 0.34241E+00 SP= 0.00E+00 SK= 0.00E+00
       N       E                     dE             d eps       ncg     rms          rms(c)
DAV:   1    -0.140367602470E+02   -0.86428E-01   -0.15009E+00    16   0.144E+01    0.773E-01
DAV:   2    -0.140335012184E+02    0.32590E-02   -0.44969E-02    32   0.200E+00    0.374E-01
DAV:   3    -0.140339210260E+02   -0.41981E-03   -0.18098E-03    16   0.393E-01    0.155E-01
DAV:   4    -0.140342534388E+02   -0.33241E-03   -0.53443E-04    24   0.197E-01    0.318E-02
DAV:   5    -0.140342820857E+02   -0.28647E-04   -0.93774E-05    24   0.801E-02
   18 T=  1582. E= -.13625357E+02 F= -.14034282E+02 E0= -.14034282E+02  EK= 0.40892E+00 SP= 0.00E+00 SK= 0.00E+00
       N       E                     dE             d eps       ncg     rms          rms(c)
DAV:   1    -0.142142335544E+02   -0.17998E+00   -0.21255E-01    24   0.631E+00    0.167E-01
DAV:   2    -0.142157841505E+02   -0.15506E-02   -0.16318E-02    16   0.130E+00    0.108E-01
DAV:   3    -0.142158355516E+02   -0.51401E-04   -0.22135E-04    32   0.142E-01
   19 T=  2196. E= -.13648212E+02 F= -.14215836E+02 E0= -.14215836E+02  EK= 0.56762E+00 SP= 0.00E+00 SK= 0.00E+00
       N       E                     dE             d eps       ncg     rms          rms(c)
DAV:   1    -0.141463437609E+02    0.69440E-01   -0.28330E-01    24   0.702E+00    0.205E-01
DAV:   2    -0.141472038944E+02   -0.86013E-03   -0.14274E-02    32   0.120E+00    0.105E-01
DAV:   3    -0.141472116570E+02   -0.77626E-05   -0.19165E-04    24   0.127E-01
   20 T=  1982. E= -.13634944E+02 F= -.14147212E+02 E0= -.14147212E+02  EK= 0.51227E+00 SP= 0.00E+00 SK= 0.00E+00
       N       E                     dE             d eps       ncg     rms          rms(c)
DAV:   1    -0.139788739727E+02    0.16833E+00   -0.29025E-01    16   0.749E+00    0.267E-01
DAV:   2    -0.139795201378E+02   -0.64617E-03   -0.18125E-02    24   0.132E+00    0.120E-01
DAV:   3    -0.139795694920E+02   -0.49354E-04   -0.15401E-04    24   0.124E-01
   21 T=  1387. E= -.13621126E+02 F= -.13979569E+02 E0= -.13979569E+02  EK= 0.35844E+00 SP= 0.00E+00 SK= 0.00E+00
       N       E                     dE             d eps       ncg     rms          rms(c)
DAV:   1    -0.139265555337E+02    0.52965E-01   -0.20465E-01    16   0.615E+00    0.153E-01
DAV:   2    -0.139273154885E+02   -0.75995E-03   -0.10084E-02    16   0.905E-01    0.118E-01
DAV:   3    -0.139272569634E+02    0.58525E-04   -0.81199E-04    24   0.248E-01
   22 T=  1197. E= -.13617796E+02 F= -.13927257E+02 E0= -.13927257E+02  EK= 0.30946E+00 SP= 0.00E+00 SK= 0.00E+00
       N       E                     dE             d eps       ncg     rms          rms(c)
DAV:   1    -0.140467088781E+02   -0.11939E+00   -0.19969E-01    32   0.336E+00    0.131E-01
DAV:   2    -0.140470190521E+02   -0.31017E-03   -0.15839E-03    24   0.429E-01    0.805E-02
DAV:   3    -0.140472492314E+02   -0.23018E-03   -0.12699E-04    32   0.124E-01    0.182E-02
DAV:   4    -0.140473122298E+02   -0.62998E-04   -0.17928E-05    32   0.416E-02
   23 T=  1630. E= -.13625886E+02 F= -.14047312E+02 E0= -.14047312E+02  EK= 0.42143E+00 SP= 0.00E+00 SK= 0.00E+00
       N       E                     dE             d eps       ncg     rms          rms(c)
DAV:   1    -0.142095695834E+02   -0.16232E+00   -0.58620E-01    32   0.494E+00    0.122E-01
DAV:   2    -0.142100088859E+02   -0.43930E-03   -0.53685E-03    16   0.674E-01    0.726E-02
DAV:   3    -0.142100901576E+02   -0.81272E-04   -0.19491E-04    32   0.119E-01
   24 T=  2190. E= -.13643863E+02 F= -.14210090E+02 E0= -.14210090E+02  EK= 0.56623E+00 SP= 0.00E+00 SK= 0.00E+00
       N       E                     dE             d eps       ncg     rms          rms(c)
DAV:   1    -0.141655786069E+02    0.44430E-01   -0.85229E-01    16   0.672E+00    0.189E-01
DAV:   2    -0.141668710738E+02   -0.12925E-02   -0.15694E-02    24   0.119E+00    0.149E-01
DAV:   3    -0.141669233913E+02   -0.52317E-04   -0.15295E-03    32   0.302E-01    0.548E-02
DAV:   4    -0.141669050361E+02    0.18355E-04   -0.43221E-04    32   0.147E-01
   25 T=  2013. E= -.13646494E+02 F= -.14166905E+02 E0= -.14166905E+02  EK= 0.52041E+00 SP= 0.00E+00 SK= 0.00E+00
       N       E                     dE             d eps       ncg     rms          rms(c)
DAV:   1    -0.139522327111E+02    0.21469E+00   -0.19638E+00    16   0.148E+01    0.504E-01
DAV:   2    -0.139525045435E+02   -0.27183E-03   -0.16940E-02    24   0.128E+00    0.303E-01
DAV:   3    -0.139531093185E+02   -0.60477E-03   -0.64958E-03    32   0.649E-01    0.114E-01
DAV:   4    -0.139528314203E+02    0.27790E-03   -0.12938E-03    16   0.265E-01    0.506E-02
DAV:   5    -0.139529243963E+02   -0.92976E-04   -0.83526E-05    32   0.741E-02
   26 T=  1334. E= -.13608008E+02 F= -.13952924E+02 E0= -.13952924E+02  EK= 0.34492E+00 SP= 0.00E+00 SK= 0.00E+00
       N       E                     dE             d eps       ncg     rms          rms(c)
DAV:   1    -0.140417041985E+02   -0.88873E-01   -0.18192E+00    16   0.161E+01    0.592E-01
DAV:   2    -0.140429806585E+02   -0.12765E-02   -0.46431E-02    32   0.204E+00    0.313E-01
DAV:   3    -0.140432963411E+02   -0.31568E-03   -0.10528E-03    16   0.291E-01    0.133E-01
DAV:   4    -0.140434759951E+02   -0.17965E-03   -0.26033E-04    16   0.139E-01    0.281E-02
DAV:   5    -0.140435012910E+02   -0.25296E-04   -0.30504E-05    32   0.504E-02
   27 T=  1607. E= -.13627959E+02 F= -.14043501E+02 E0= -.14043501E+02  EK= 0.41554E+00 SP= 0.00E+00 SK= 0.00E+00
       N       E                     dE             d eps       ncg     rms          rms(c)
DAV:   1    -0.142148879787E+02   -0.17141E+00   -0.26118E-01    32   0.647E+00    0.184E-01
DAV:   2    -0.142158963268E+02   -0.10083E-02   -0.10827E-02    16   0.106E+00    0.116E-01
DAV:   3    -0.142160002215E+02   -0.10389E-03   -0.28641E-04    32   0.165E-01    0.438E-02
DAV:   4    -0.142160641787E+02   -0.63957E-04   -0.40254E-05    24   0.663E-02
   28 T=  2193. E= -.13649042E+02 F= -.14216064E+02 E0= -.14216064E+02  EK= 0.56702E+00 SP= 0.00E+00 SK= 0.00E+00
       N       E                     dE             d eps       ncg     rms          rms(c)
DAV:   1    -0.141359582041E+02    0.80042E-01   -0.30439E-01    24   0.666E+00    0.181E-01
DAV:   2    -0.141365213157E+02   -0.56311E-03   -0.91915E-03    16   0.994E-01    0.100E-01
DAV:   3    -0.141365291811E+02   -0.78654E-05   -0.18609E-04    32   0.137E-01
   29 T=  1943. E= -.13634304E+02 F= -.14136529E+02 E0= -.14136529E+02  EK= 0.50223E+00 SP= 0.00E+00 SK= 0.00E+00
       N       E                     dE             d eps       ncg     rms          rms(c)
DAV:   1    -0.139714593323E+02    0.16506E+00   -0.32925E-01    16   0.759E+00    0.242E-01
DAV:   2    -0.139724060997E+02   -0.94677E-03   -0.16124E-02    32   0.121E+00    0.118E-01
DAV:   3    -0.139724327423E+02   -0.26643E-04   -0.18154E-04    24   0.127E-01
   30 T=  1361. E= -.13620708E+02 F= -.13972433E+02 E0= -.13972433E+02  EK= 0.35172E+00 SP= 0.00E+00 SK= 0.00E+00
       N       E                     dE             d eps       ncg     rms          rms(c)
DAV:   1    -0.139332498880E+02    0.39156E-01   -0.20350E-01    16   0.570E+00    0.148E-01
DAV:   2    -0.139338892530E+02   -0.63936E-03   -0.85844E-03    32   0.869E-01    0.117E-01
DAV:   3    -0.139338603241E+02    0.28929E-04   -0.11573E-03    32   0.271E-01    0.464E-02
DAV:   4    -0.139338706830E+02   -0.10359E-04   -0.11408E-04    32   0.804E-02
   31 T=  1221. E= -.13618208E+02 F= -.13933871E+02 E0= -.13933871E+02  EK= 0.31566E+00 SP= 0.00E+00 SK= 0.00E+00
       N       E                     dE             d eps       ncg     rms          rms(c)
DAV:   1    -0.140635877011E+02   -0.12973E+00   -0.19781E-01    24   0.306E+00    0.880E-02
DAV:   2    -0.140639334783E+02   -0.34578E-03   -0.25608E-03    32   0.525E-01    0.557E-02
DAV:   3    -0.140640213921E+02   -0.87914E-04   -0.11601E-04    32   0.835E-02
   32 T=  1689. E= -.13627443E+02 F= -.14064021E+02 E0= -.14064021E+02  EK= 0.43658E+00 SP= 0.00E+00 SK= 0.00E+00
       N       E                     dE             d eps       ncg     rms          rms(c)
DAV:   1    -0.142158580544E+02   -0.15192E+00   -0.55722E-01    16   0.480E+00    0.773E-02
DAV:   2    -0.142173527928E+02   -0.14947E-02   -0.14096E-02    32   0.102E+00    0.101E-01
DAV:   3    -0.142173367846E+02    0.16008E-04   -0.15916E-05    16   0.329E-02
   33 T=  2216. E= -.13644497E+02 F= -.14217337E+02 E0= -.14217337E+02  EK= 0.57284E+00 SP= 0.00E+00 SK= 0.00E+00
       N       E                     dE             d eps       ncg     rms          rms(c)
DAV:   1    -0.141461468479E+02    0.71206E-01   -0.75022E-01    16   0.626E+00    0.195E-01
DAV:   2    -0.141477403004E+02   -0.15935E-02   -0.19172E-02    16   0.129E+00    0.160E-01
DAV:   3    -0.141477406988E+02   -0.39841E-06   -0.10794E-03    32   0.253E-01    0.657E-02
DAV:   4    -0.141477716011E+02   -0.30902E-04   -0.27349E-04    16   0.114E-01
   34 T=  1958. E= -.13641522E+02 F= -.14147772E+02 E0= -.14147772E+02  EK= 0.50625E+00 SP= 0.00E+00 SK= 0.00E+00
       N       E                     dE             d eps       ncg     rms          rms(c)
DAV:   1    -0.139446961721E+02    0.20304E+00   -0.13390E+00    16   0.120E+01    0.431E-01
DAV:   2    -0.139448057778E+02   -0.10961E-03   -0.11084E-02    16   0.106E+00    0.247E-01
DAV:   3    -0.139452233221E+02   -0.41754E-03   -0.35723E-03    16   0.478E-01    0.849E-02
DAV:   4    -0.139451017061E+02    0.12162E-03   -0.86183E-04    32   0.225E-01    0.434E-02
DAV:   5    -0.139451974061E+02   -0.95700E-04   -0.22035E-05    16   0.475E-02
   35 T=  1319. E= -.13604267E+02 F= -.13945197E+02 E0= -.13945197E+02  EK= 0.34093E+00 SP= 0.00E+00 SK= 0.00E+00
       N       E                     dE             d eps       ncg     rms          rms(c)
DAV:   1    -0.140596686961E+02   -0.11457E+00   -0.92733E-01    16   0.114E+01    0.429E-01
DAV:   2    -0.140594748503E+02    0.19385E-03   -0.28804E-02    32   0.160E+00    0.194E-01
DAV:   3    -0.140595455255E+02   -0.70675E-04   -0.88364E-04    16   0.253E-01
   36 T=  1667. E= -.13628555E+02 F= -.14059546E+02 E0= -.14059546E+02  EK= 0.43099E+00 SP= 0.00E+00 SK= 0.00E+00
       N       E                     dE             d eps       ncg     rms          rms(c)
DAV:   1    -0.142113922555E+02   -0.15192E+00   -0.28478E-01    32   0.629E+00    0.193E-01
DAV:   2    -0.142122147114E+02   -0.82246E-03   -0.83968E-03    24   0.909E-01    0.129E-01
DAV:   3    -0.142124112622E+02   -0.19655E-03   -0.48336E-04    32   0.214E-01    0.300E-02
DAV:   4    -0.142124310206E+02   -0.19758E-04   -0.87379E-05    16   0.739E-02
   37 T=  2193. E= -.13645427E+02 F= -.14212431E+02 E0= -.14212431E+02  EK= 0.56700E+00 SP= 0.00E+00 SK= 0.00E+00
       N       E                     dE             d eps       ncg     rms          rms(c)
DAV:   1    -0.141193406037E+02    0.93071E-01   -0.32217E-01    24   0.675E+00    0.217E-01
DAV:   2    -0.141198092697E+02   -0.46867E-03   -0.11418E-02    16   0.108E+00    0.103E-01
DAV:   3    -0.141198192428E+02   -0.99731E-05   -0.17254E-04    24   0.136E-01
   38 T=  1892. E= -.13630773E+02 F= -.14119819E+02 E0= -.14119819E+02  EK= 0.48905E+00 SP= 0.00E+00 SK= 0.00E+00
       N       E                     dE             d eps       ncg     rms          rms(c)
DAV:   1    -0.139560679975E+02    0.16374E+00   -0.23141E-01    16   0.609E+00    0.196E-01
DAV:   2    -0.139568714491E+02   -0.80345E-03   -0.15497E-02    24   0.120E+00    0.780E-02
DAV:   3    -0.139569061255E+02   -0.34676E-04   -0.72604E-05    24   0.772E-02
   39 T=  1311. E= -.13617927E+02 F= -.13956906E+02 E0= -.13956906E+02  EK= 0.33898E+00 SP= 0.00E+00 SK= 0.00E+00
       N       E                     dE             d eps       ncg     rms          rms(c)
DAV:   1    -0.139223207858E+02    0.34551E-01   -0.21192E-01    16   0.573E+00    0.158E-01
DAV:   2    -0.139229202581E+02   -0.59947E-03   -0.80567E-03    24   0.837E-01    0.116E-01
DAV:   3    -0.139229271953E+02   -0.69371E-05   -0.96254E-04    16   0.248E-01
   40 T=  1188. E= -.13615696E+02 F= -.13922927E+02 E0= -.13922927E+02  EK= 0.30723E+00 SP= 0.00E+00 SK= 0.00E+00
       N       E                     dE             d eps       ncg     rms          rms(c)
DAV:   1    -0.140561513795E+02   -0.13323E+00   -0.23227E-01    24   0.354E+00    0.131E-01
DAV:   2    -0.140565669660E+02   -0.41559E-03   -0.29767E-03    24   0.566E-01    0.825E-02
DAV:   3    -0.140567162507E+02   -0.14928E-03   -0.22205E-04    16   0.128E-01    0.310E-02
DAV:   4    -0.140567846497E+02   -0.68399E-04   -0.30405E-05    32   0.548E-02
   41 T=  1670. E= -.13624978E+02 F= -.14056785E+02 E0= -.14056785E+02  EK= 0.43181E+00 SP= 0.00E+00 SK= 0.00E+00
       N       E                     dE             d eps       ncg     rms          rms(c)
DAV:   1    -0.142099426592E+02   -0.15323E+00   -0.61455E-01    16   0.530E+00    0.956E-02
DAV:   2    -0.142116581420E+02   -0.17155E-02   -0.16988E-02    24   0.115E+00    0.115E-01
DAV:   3    -0.142116090483E+02    0.49094E-04   -0.36984E-05    16   0.534E-02
   42 T=  2204. E= -.13641753E+02 F= -.14211609E+02 E0= -.14211609E+02  EK= 0.56986E+00 SP= 0.00E+00 SK= 0.00E+00
       N       E                     dE             d eps       ncg     rms          rms(c)
DAV:   1    -0.141420229328E+02    0.69635E-01   -0.81747E-01    16   0.691E+00    0.195E-01
DAV:   2    -0.141437368737E+02   -0.17139E-02   -0.19059E-02    16   0.124E+00    0.163E-01
DAV:   3    -0.141437285839E+02    0.82899E-05   -0.91359E-04    24   0.244E-01
   43 T=  1952. E= -.13639069E+02 F= -.14143729E+02 E0= -.14143729E+02  EK= 0.50466E+00 SP= 0.00E+00 SK= 0.00E+00
       N       E                     dE             d eps       ncg     rms          rms(c)
DAV:   1    -0.139467190965E+02    0.19702E+00   -0.38021E+00    16   0.217E+01    0.740E-01
DAV:   2    -0.139464568670E+02    0.26223E-03   -0.30268E-02    16   0.167E+00    0.428E-01
DAV:   3    -0.139474673541E+02   -0.10105E-02   -0.87298E-03    32   0.782E-01    0.137E-01
DAV:   4    -0.139472507193E+02    0.21663E-03   -0.37361E-03    24   0.438E-01    0.918E-02
DAV:   5    -0.139473459183E+02   -0.95199E-04   -0.33492E-04    16   0.159E-01
   44 T=  1332. E= -.13603055E+02 F= -.13947346E+02 E0= -.13947346E+02  EK= 0.34429E+00 SP= 0.00E+00 SK= 0.00E+00
       N       E                     dE             d eps       ncg     rms          rms(c)
DAV:   1    -0.140640932127E+02   -0.11684E+00   -0.12119E+00    16   0.129E+01    0.681E-01
DAV:   2    -0.140637738986E+02    0.31931E-03   -0.38556E-02    24   0.185E+00    0.357E-01
DAV:   3    -0.140642438929E+02   -0.46999E-03   -0.21028E-03    24   0.406E-01    0.138E-01
DAV:   4    -0.140644762174E+02   -0.23232E-03   -0.79479E-04    24   0.208E-01    0.439E-02
DAV:   5    -0.140644855600E+02   -0.93427E-05   -0.15380E-04    24   0.973E-02
   45 T=  1688. E= -.13628003E+02 F= -.14064486E+02 E0= -.14064486E+02  EK= 0.43648E+00 SP= 0.00E+00 SK= 0.00E+00
       N       E                     dE             d eps       ncg     rms          rms(c)
DAV:   1    -0.142094106052E+02   -0.14493E+00   -0.37021E-01    24   0.714E+00    0.223E-01
DAV:   2    -0.142107717769E+02   -0.13612E-02   -0.15480E-02    16   0.124E+00    0.136E-01
DAV:   3    -0.142108396725E+02   -0.67896E-04   -0.27324E-04    32   0.155E-01
   46 T=  2191. E= -.13644523E+02 F= -.14210840E+02 E0= -.14210840E+02  EK= 0.56632E+00 SP= 0.00E+00 SK= 0.00E+00
       N       E                     dE             d eps       ncg     rms          rms(c)
DAV:   1    -0.141085547736E+02    0.10222E+00   -0.40694E-01    16   0.728E+00    0.211E-01
DAV:   2    -0.141097872917E+02   -0.12325E-02   -0.16659E-02    24   0.128E+00    0.109E-01
DAV:   3    -0.141098264989E+02   -0.39207E-04   -0.19660E-04    24   0.122E-01
   47 T=  1857. E= -.13629744E+02 F= -.14109826E+02 E0= -.14109826E+02  EK= 0.48008E+00 SP= 0.00E+00 SK= 0.00E+00
       N       E                     dE             d eps       ncg     rms          rms(c)
DAV:   1    -0.139458688318E+02    0.16392E+00   -0.33437E-01    16   0.703E+00    0.216E-01
DAV:   2    -0.139467516604E+02   -0.88283E-03   -0.16096E-02    24   0.122E+00    0.891E-02
DAV:   3    -0.139467815661E+02   -0.29906E-04   -0.12483E-04    24   0.103E-01
   48 T=  1275. E= -.13617114E+02 F= -.13946782E+02 E0= -.13946782E+02  EK= 0.32967E+00 SP= 0.00E+00 SK= 0.00E+00
       N       E                     dE             d eps       ncg     rms          rms(c)
DAV:   1    -0.139217311118E+02    0.25021E-01   -0.28025E-01    16   0.628E+00    0.146E-01
DAV:   2    -0.139225004723E+02   -0.76936E-03   -0.84430E-03    24   0.903E-01    0.115E-01
DAV:   3    -0.139224733530E+02    0.27119E-04   -0.60834E-04    16   0.191E-01
   49 T=  1187. E= -.13615631E+02 F= -.13922473E+02 E0= -.13922473E+02  EK= 0.30684E+00 SP= 0.00E+00 SK= 0.00E+00
       N       E                     dE             d eps       ncg     rms          rms(c)
DAV:   1    -0.140644240459E+02   -0.14192E+00   -0.24260E-01    24   0.361E+00    0.111E-01
DAV:   2    -0.140649122278E+02   -0.48818E-03   -0.41765E-03    16   0.647E-01    0.685E-02
DAV:   3    -0.140650472430E+02   -0.13502E-03   -0.10264E-04    24   0.904E-02    0.312E-02
DAV:   4    -0.140651203576E+02   -0.73115E-04   -0.35648E-05    24   0.478E-02
   50 T=  1698. E= -.13626059E+02 F= -.14065120E+02 E0= -.14065120E+02  EK= 0.43906E+00 SP= 0.00E+00 SK= 0.00E+00
       N       E                     dE             d eps       ncg     rms          rms(c)
DAV:   1    -0.142085954313E+02   -0.14355E+00   -0.55279E-01    16   0.502E+00    0.746E-02
DAV:   2    -0.142106371930E+02   -0.20418E-02   -0.19946E-02    24   0.119E+00    0.116E-01
DAV:   3    -0.142105713940E+02    0.65799E-04   -0.81950E-05    32   0.725E-02
   51 T=  2194. E= -.13643291E+02 F= -.14210571E+02 E0= -.14210571E+02  EK= 0.56728E+00 SP= 0.00E+00 SK= 0.00E+00
       N       E                     dE             d eps       ncg     rms          rms(c)
DAV:   1    -0.141131172673E+02    0.97520E-01   -0.70713E-01    16   0.632E+00    0.192E-01
DAV:   2    -0.141148158584E+02   -0.16986E-02   -0.19793E-02    16   0.131E+00    0.159E-01
DAV:   3    -0.141148004060E+02    0.15452E-04   -0.10145E-03    32   0.249E-01    0.659E-02
DAV:   4    -0.141148269045E+02   -0.26498E-04   -0.20533E-04    16   0.992E-02
   52 T=  1854. E= -.13635449E+02 F= -.14114827E+02 E0= -.14114827E+02  EK= 0.47938E+00 SP= 0.00E+00 SK= 0.00E+00
       N       E                     dE             d eps       ncg     rms          rms(c)
DAV:   1    -0.139325842102E+02    0.18222E+00   -0.86666E-01    16   0.965E+00    0.299E-01
DAV:   2    -0.139333846282E+02   -0.80042E-03   -0.78895E-03    16   0.849E-01    0.184E-01
DAV:   3    -0.139335702125E+02   -0.18558E-03   -0.67248E-04    24   0.236E-01    0.481E-02
DAV:   4    -0.139335918515E+02   -0.21639E-04   -0.62269E-05    16   0.649E-02
   53 T=  1289. E= -.13600445E+02 F= -.13933592E+02 E0= -.13933592E+02  EK= 0.33315E+00 SP= 0.00E+00 SK= 0.00E+00
       N       E                     dE             d eps       ncg     rms          rms(c)
DAV:   1    -0.140832575750E+02   -0.14969E+00   -0.62506E-01    16   0.908E+00    0.326E-01
DAV:   2    -0.140833480489E+02   -0.90474E-04   -0.16750E-02    16   0.124E+00    0.159E-01
DAV:   3    -0.140834603053E+02   -0.11226E-03   -0.13917E-03    24   0.294E-01    0.635E-02
DAV:   4    -0.140835101615E+02   -0.49856E-04   -0.46159E-04    16   0.153E-01
   54 T=  1755. E= -.13629718E+02 F= -.14083510E+02 E0= -.14083510E+02  EK= 0.45379E+00 SP= 0.00E+00 SK= 0.00E+00
       N       E                     dE             d eps       ncg     rms          rms(c)
DAV:   1    -0.142145124858E+02   -0.13105E+00   -0.38413E-01    24   0.633E+00    0.207E-01
DAV:   2    -0.142152282929E+02   -0.71581E-03   -0.99463E-03    16   0.101E+00    0.120E-01
DAV:   3    -0.142152603360E+02   -0.32043E-04   -0.19584E-04    24   0.139E-01
   55 T=  2220. E= -.13641384E+02 F= -.14215260E+02 E0= -.14215260E+02  EK= 0.57388E+00 SP= 0.00E+00 SK= 0.00E+00
       N       E                     dE             d eps       ncg     rms          rms(c)
DAV:   1    -0.140995518814E+02    0.11568E+00   -0.39079E-01    24   0.660E+00    0.216E-01
DAV:   2    -0.141001487791E+02   -0.59690E-03   -0.12378E-02    16   0.115E+00    0.103E-01
DAV:   3    -0.141001807994E+02   -0.32020E-04   -0.16976E-04    24   0.129E-01
   56 T=  1836. E= -.13625619E+02 F= -.14100181E+02 E0= -.14100181E+02  EK= 0.47456E+00 SP= 0.00E+00 SK= 0.00E+00
       N       E                     dE             d eps       ncg     rms          rms(c)
DAV:   1    -0.139392267751E+02    0.16092E+00   -0.25343E-01    16   0.575E+00    0.189E-01
DAV:   2    -0.139400231461E+02   -0.79637E-03   -0.15081E-02    24   0.121E+00    0.728E-02
DAV:   3    -0.139400381802E+02   -0.15034E-04   -0.96723E-05    24   0.855E-02
   57 T=  1263. E= -.13613601E+02 F= -.13940038E+02 E0= -.13940038E+02  EK= 0.32644E+00 SP= 0.00E+00 SK= 0.00E+00
       N       E                     dE             d eps       ncg     rms          rms(c)
DAV:   1    -0.139233447051E+02    0.16678E-01   -0.22292E-01    16   0.548E+00    0.158E-01
DAV:   2    -0.139238496643E+02   -0.50496E-03   -0.69116E-03    16   0.853E-01    0.103E-01
DAV:   3    -0.139239782572E+02   -0.12859E-03   -0.88680E-04    16   0.233E-01    0.423E-02
DAV:   4    -0.139239889895E+02   -0.10732E-04   -0.16754E-04    24   0.915E-02
   58 T=  1205. E= -.13612590E+02 F= -.13923989E+02 E0= -.13923989E+02  EK= 0.31140E+00 SP= 0.00E+00 SK= 0.00E+00
       N       E                     dE             d eps       ncg     rms          rms(c)
DAV:   1    -0.140681696251E+02   -0.14419E+00   -0.23959E-01    24   0.361E+00    0.637E-02
DAV:   2    -0.140688960031E+02   -0.72638E-03   -0.63768E-03    24   0.739E-01    0.553E-02
DAV:   3    -0.140689327476E+02   -0.36744E-04   -0.33374E-05    16   0.467E-02
   59 T=  1724. E= -.13623184E+02 F= -.14068933E+02 E0= -.14068933E+02  EK= 0.44575E+00 SP= 0.00E+00 SK= 0.00E+00
       N       E                     dE             d eps       ncg     rms          rms(c)
DAV:   1    -0.142040123853E+02   -0.13512E+00   -0.58074E-01    16   0.538E+00    0.876E-02
DAV:   2    -0.142060844147E+02   -0.20720E-02   -0.20045E-02    16   0.125E+00    0.123E-01
DAV:   3    -0.142060560509E+02    0.28364E-04   -0.12983E-04    32   0.108E-01
   60 T=  2192. E= -.13639400E+02 F= -.14206056E+02 E0= -.14206056E+02  EK= 0.56666E+00 SP= 0.00E+00 SK= 0.00E+00
       N       E                     dE             d eps       ncg     rms          rms(c)
DAV:   1    -0.141009057537E+02    0.10518E+00   -0.73739E-01    16   0.687E+00    0.224E-01
DAV:   2    -0.141028397045E+02   -0.19340E-02   -0.22571E-02    16   0.138E+00    0.191E-01
DAV:   3    -0.141028183941E+02    0.21310E-04   -0.15797E-03    24   0.309E-01    0.798E-02
DAV:   4    -0.141028649645E+02   -0.46570E-04   -0.18561E-04    16   0.991E-02
   61 T=  1831. E= -.13629525E+02 F= -.14102865E+02 E0= -.14102865E+02  EK= 0.47334E+00 SP= 0.00E+00 SK= 0.00E+00
       N       E                     dE             d eps       ncg     rms          rms(c)
DAV:   1    -0.139343969785E+02    0.16842E+00   -0.56870E-01    16   0.708E+00    0.366E-01
DAV:   2    -0.139335541573E+02    0.84282E-03   -0.14720E-02    24   0.112E+00    0.172E-01
DAV:   3    -0.139334737720E+02    0.80385E-04   -0.25795E-04    16   0.179E-01
   62 T=  1303. E= -.13596717E+02 F= -.13933474E+02 E0= -.13933474E+02  EK= 0.33676E+00 SP= 0.00E+00 SK= 0.00E+00
       N       E                     dE             d eps       ncg     rms          rms(c)
DAV:   1    -0.140889153645E+02   -0.15536E+00   -0.67445E-01    16   0.942E+00    0.314E-01
DAV:   2    -0.140893679062E+02   -0.45254E-03   -0.16180E-02    24   0.125E+00    0.167E-01
DAV:   3    -0.140895522637E+02   -0.18436E-03   -0.27882E-03    32   0.402E-01    0.723E-02
DAV:   4    -0.140894966725E+02    0.55591E-04   -0.63801E-04    16   0.179E-01
   63 T=  1791. E= -.13626470E+02 F= -.14089497E+02 E0= -.14089497E+02  EK= 0.46303E+00 SP= 0.00E+00 SK= 0.00E+00
       N       E                     dE             d eps       ncg     rms          rms(c)
DAV:   1    -0.142159363323E+02   -0.12638E+00   -0.48415E-01    24   0.748E+00    0.243E-01
DAV:   2    -0.142170041287E+02   -0.10678E-02   -0.13454E-02    16   0.115E+00    0.141E-01
DAV:   3    -0.142170793060E+02   -0.75177E-04   -0.19734E-04    24   0.139E-01
   64 T=  2239. E= -.13638208E+02 F= -.14217079E+02 E0= -.14217079E+02  EK= 0.57887E+00 SP= 0.00E+00 SK= 0.00E+00
       N       E                     dE             d eps       ncg     rms          rms(c)
DAV:   1    -0.140972108508E+02    0.11979E+00   -0.47848E-01    24   0.752E+00    0.229E-01
DAV:   2    -0.140977653764E+02   -0.55453E-03   -0.12751E-02    16   0.115E+00    0.104E-01
DAV:   3    -0.140978135315E+02   -0.48155E-04   -0.18089E-04    32   0.133E-01
   65 T=  1839. E= -.13622295E+02 F= -.14097814E+02 E0= -.14097814E+02  EK= 0.47552E+00 SP= 0.00E+00 SK= 0.00E+00
       N       E                     dE             d eps       ncg     rms          rms(c)
DAV:   1    -0.139373287084E+02    0.16044E+00   -0.26503E-01    16   0.564E+00    0.192E-01
DAV:   2    -0.139381177373E+02   -0.78903E-03   -0.15828E-02    24   0.123E+00    0.792E-02
DAV:   3    -0.139381258666E+02   -0.81293E-05   -0.11689E-04    24   0.912E-02
   66 T=  1269. E= -.13610177E+02 F= -.13938126E+02 E0= -.13938126E+02  EK= 0.32795E+00 SP= 0.00E+00 SK= 0.00E+00
       N       E                     dE             d eps       ncg     rms          rms(c)
DAV:   1    -0.139284822127E+02    0.96355E-02   -0.29825E-01    16   0.636E+00    0.161E-01
DAV:   2    -0.139291803588E+02   -0.69815E-03   -0.72608E-03    24   0.839E-01    0.111E-01
DAV:   3    -0.139293014840E+02   -0.12113E-03   -0.94424E-04    24   0.229E-01    0.470E-02
DAV:   4    -0.139293361748E+02   -0.34691E-04   -0.91379E-05    32   0.656E-02
   67 T=  1238. E= -.13609396E+02 F= -.13929336E+02 E0= -.13929336E+02  EK= 0.31994E+00 SP= 0.00E+00 SK= 0.00E+00
       N       E                     dE             d eps       ncg     rms          rms(c)
DAV:   1    -0.140823811027E+02   -0.15308E+00   -0.24293E-01    16   0.403E+00    0.696E-02
DAV:   2    -0.140834353444E+02   -0.10542E-02   -0.94910E-03    32   0.874E-01    0.664E-02
DAV:   3    -0.140834572671E+02   -0.21923E-04   -0.34422E-05    16   0.472E-02
   68 T=  1790. E= -.13620757E+02 F= -.14083457E+02 E0= -.14083457E+02  EK= 0.46270E+00 SP= 0.00E+00 SK= 0.00E+00
       N       E                     dE             d eps       ncg     rms          rms(c)
DAV:   1    -0.142149806775E+02   -0.13155E+00   -0.54485E-01    16   0.541E+00    0.101E-01
DAV:   2    -0.142170168238E+02   -0.20361E-02   -0.19685E-02    24   0.126E+00    0.126E-01
DAV:   3    -0.142169674356E+02    0.49388E-04   -0.52484E-05    32   0.612E-02
   69 T=  2240. E= -.13637891E+02 F= -.14216967E+02 E0= -.14216967E+02  EK= 0.57908E+00 SP= 0.00E+00 SK= 0.00E+00
       N       E                     dE             d eps       ncg     rms          rms(c)
DAV:   1    -0.140889085403E+02    0.12811E+00   -0.65002E-01    16   0.662E+00    0.163E-01
DAV:   2    -0.140910275623E+02   -0.21190E-02   -0.21478E-02    24   0.135E+00    0.168E-01
DAV:   3    -0.140909273266E+02    0.10024E-03   -0.12797E-04    24   0.903E-02    0.135E-01
DAV:   4    -0.140910357463E+02   -0.10842E-03   -0.58682E-04    16   0.205E-01    0.300E-02
DAV:   5    -0.140910808259E+02   -0.45080E-04   -0.19902E-05    24   0.410E-02
   70 T=  1801. E= -.13625364E+02 F= -.14091081E+02 E0= -.14091081E+02  EK= 0.46572E+00 SP= 0.00E+00 SK= 0.00E+00
       N       E                     dE             d eps       ncg     rms          rms(c)
DAV:   1    -0.139262844991E+02    0.16475E+00   -0.56680E-01    16   0.726E+00    0.350E-01
DAV:   2    -0.139258728928E+02    0.41161E-03   -0.13994E-02    16   0.111E+00    0.170E-01
DAV:   3    -0.139258419284E+02    0.30964E-04   -0.19547E-04    32   0.149E-01
   71 T=  1286. E= -.13593397E+02 F= -.13925842E+02 E0= -.13925842E+02  EK= 0.33245E+00 SP= 0.00E+00 SK= 0.00E+00
       N       E                     dE             d eps       ncg     rms          rms(c)
DAV:   1    -0.141025000419E+02   -0.17663E+00   -0.57467E-01    16   0.810E+00    0.296E-01
DAV:   2    -0.141024412656E+02    0.58776E-04   -0.11558E-02    32   0.105E+00    0.148E-01
DAV:   3    -0.141025809510E+02   -0.13969E-03   -0.14075E-03    32   0.292E-01    0.583E-02
DAV:   4    -0.141026163123E+02   -0.35361E-04   -0.44595E-04    16   0.149E-01
   72 T=  1842. E= -.13626446E+02 F= -.14102616E+02 E0= -.14102616E+02  EK= 0.47617E+00 SP= 0.00E+00 SK= 0.00E+00
       N       E                     dE             d eps       ncg     rms          rms(c)
DAV:   1    -0.142193467476E+02   -0.11677E+00   -0.49981E-01    16   0.680E+00    0.250E-01
DAV:   2    -0.142202673090E+02   -0.92056E-03   -0.15098E-02    32   0.122E+00    0.130E-01
DAV:   3    -0.142203019089E+02   -0.34600E-04   -0.14966E-04    16   0.110E-01
   73 T=  2263. E= -.13635385E+02 F= -.14220302E+02 E0= -.14220302E+02  EK= 0.58492E+00 SP= 0.00E+00 SK= 0.00E+00
       N       E                     dE             d eps       ncg     rms          rms(c)
DAV:   1    -0.140899521501E+02    0.13032E+00   -0.47040E-01    16   0.684E+00    0.236E-01
DAV:   2    -0.140906245659E+02   -0.67242E-03   -0.14402E-02    24   0.122E+00    0.103E-01
DAV:   3    -0.140906422329E+02   -0.17667E-04   -0.16024E-04    32   0.110E-01
   74 T=  1826. E= -.13618664E+02 F= -.14090642E+02 E0= -.14090642E+02  EK= 0.47198E+00 SP= 0.00E+00 SK= 0.00E+00
       N       E                     dE             d eps       ncg     rms          rms(c)
DAV:   1    -0.139358885063E+02    0.15474E+00   -0.32837E-01    16   0.576E+00    0.164E-01
DAV:   2    -0.139372249529E+02   -0.13364E-02   -0.15918E-02    32   0.122E+00    0.104E-01
DAV:   3    -0.139372204216E+02    0.45314E-05   -0.12487E-04    32   0.840E-02
   75 T=  1277. E= -.13607206E+02 F= -.13937220E+02 E0= -.13937220E+02  EK= 0.33001E+00 SP= 0.00E+00 SK= 0.00E+00
       N       E                     dE             d eps       ncg     rms          rms(c)
DAV:   1    -0.139409496313E+02   -0.37247E-02   -0.23823E-01    24   0.559E+00    0.171E-01
DAV:   2    -0.139415305646E+02   -0.58093E-03   -0.71103E-03    32   0.777E-01    0.968E-02
DAV:   3    -0.139416833750E+02   -0.15281E-03   -0.14278E-04    32   0.114E-01    0.409E-02
DAV:   4    -0.139417948482E+02   -0.11147E-03   -0.65165E-05    32   0.614E-02    0.142E-02
DAV:   5    -0.139418432340E+02   -0.48386E-04   -0.11686E-05    32   0.274E-02
   76 T=  1293. E= -.13607485E+02 F= -.13941843E+02 E0= -.13941843E+02  EK= 0.33436E+00 SP= 0.00E+00 SK= 0.00E+00
       N       E                     dE             d eps       ncg     rms          rms(c)
DAV:   1    -0.140993663876E+02   -0.15757E+00   -0.20319E-01    16   0.399E+00    0.681E-02
DAV:   2    -0.141004515676E+02   -0.10852E-02   -0.10531E-02    32   0.977E-01    0.699E-02
DAV:   3    -0.141004359120E+02    0.15656E-04   -0.79889E-05    32   0.639E-02
   77 T=  1860. E= -.13619600E+02 F= -.14100436E+02 E0= -.14100436E+02  EK= 0.48084E+00 SP= 0.00E+00 SK= 0.00E+00
       N       E                     dE             d eps       ncg     rms          rms(c)
DAV:   1    -0.142174806055E+02   -0.11703E+00   -0.49466E-01    32   0.574E+00    0.127E-01
DAV:   2    -0.142184794020E+02   -0.99880E-03   -0.10629E-02    16   0.104E+00    0.982E-02
DAV:   3    -0.142185846329E+02   -0.10523E-03   -0.35873E-04    32   0.151E-01    0.435E-02
DAV:   4    -0.142186429540E+02   -0.58321E-04   -0.67777E-05    32   0.576E-02
   78 T=  2251. E= -.13636670E+02 F= -.14218643E+02 E0= -.14218643E+02  EK= 0.58197E+00 SP= 0.00E+00 SK= 0.00E+00
       N       E                     dE             d eps       ncg     rms          rms(c)
DAV:   1    -0.140764924665E+02    0.14209E+00   -0.61769E-01    16   0.704E+00    0.134E-01
DAV:   2    -0.140788914040E+02   -0.23989E-02   -0.24388E-02    32   0.143E+00    0.153E-01
DAV:   3    -0.140787678126E+02    0.12359E-03   -0.11367E-04    16   0.807E-02    0.123E-01
DAV:   4    -0.140787350500E+02    0.32763E-04   -0.70029E-04    32   0.204E-01
   79 T=  1767. E= -.13622016E+02 F= -.14078735E+02 E0= -.14078735E+02  EK= 0.45672E+00 SP= 0.00E+00 SK= 0.00E+00
       N       E                     dE             d eps       ncg     rms          rms(c)
DAV:   1    -0.139353659968E+02    0.14340E+00   -0.82778E-01    16   0.943E+00    0.520E-01
DAV:   2    -0.139315251981E+02    0.38408E-02   -0.26703E-02    24   0.147E+00    0.181E-01
DAV:   3    -0.139313577237E+02    0.16747E-03   -0.70008E-04    16   0.238E-01    0.833E-02
DAV:   4    -0.139314292279E+02   -0.71504E-04   -0.16980E-04    16   0.141E-01
   80 T=  1303. E= -.13594586E+02 F= -.13931429E+02 E0= -.13931429E+02  EK= 0.33684E+00 SP= 0.00E+00 SK= 0.00E+00
       N       E                     dE             d eps       ncg     rms          rms(c)
DAV:   1    -0.141052934052E+02   -0.17394E+00   -0.53367E-01    16   0.774E+00    0.280E-01
DAV:   2    -0.141055713904E+02   -0.27799E-03   -0.93995E-03    32   0.928E-01    0.162E-01
DAV:   3    -0.141057979607E+02   -0.22657E-03   -0.17325E-03    24   0.326E-01    0.627E-02
DAV:   4    -0.141057931157E+02    0.48450E-05   -0.53197E-04    24   0.164E-01
   81 T=  1856. E= -.13626068E+02 F= -.14105793E+02 E0= -.14105793E+02  EK= 0.47973E+00 SP= 0.00E+00 SK= 0.00E+00
       N       E                     dE             d eps       ncg     rms          rms(c)
DAV:   1    -0.142098944845E+02   -0.10410E+00   -0.57259E-01    24   0.730E+00    0.258E-01
DAV:   2    -0.142103318556E+02   -0.43737E-03   -0.11372E-02    16   0.111E+00    0.129E-01
DAV:   3    -0.142104025334E+02   -0.70678E-04   -0.16391E-04    32   0.135E-01
   82 T=  2230. E= -.13633842E+02 F= -.14210403E+02 E0= -.14210403E+02  EK= 0.57656E+00 SP= 0.00E+00 SK= 0.00E+00
       N       E                     dE             d eps       ncg     rms          rms(c)
DAV:   1    -0.140785233567E+02    0.13181E+00   -0.52100E-01    16   0.716E+00    0.250E-01
DAV:   2    -0.140789317274E+02   -0.40837E-03   -0.14597E-02    16   0.125E+00    0.926E-02
DAV:   3    -0.140789854726E+02   -0.53745E-04   -0.13628E-04    32   0.122E-01
   83 T=  1784. E= -.13617678E+02 F= -.14078985E+02 E0= -.14078985E+02  EK= 0.46131E+00 SP= 0.00E+00 SK= 0.00E+00
       N       E                     dE             d eps       ncg     rms          rms(c)
DAV:   1    -0.139286370446E+02    0.15029E+00   -0.34928E-01    16   0.563E+00    0.175E-01
DAV:   2    -0.139298312161E+02   -0.11942E-02   -0.16534E-02    24   0.122E+00    0.107E-01
DAV:   3    -0.139298061216E+02    0.25094E-04   -0.19024E-04    32   0.107E-01
   84 T=  1251. E= -.13606444E+02 F= -.13929806E+02 E0= -.13929806E+02  EK= 0.32336E+00 SP= 0.00E+00 SK= 0.00E+00
       N       E                     dE             d eps       ncg     rms          rms(c)
DAV:   1    -0.139398473703E+02   -0.10016E-01   -0.26988E-01    16   0.591E+00    0.166E-01
DAV:   2    -0.139405521114E+02   -0.70474E-03   -0.82962E-03    32   0.823E-01    0.907E-02
DAV:   3    -0.139406782972E+02   -0.12619E-03   -0.13539E-04    16   0.109E-01    0.389E-02
DAV:   4    -0.139407633764E+02   -0.85079E-04   -0.45774E-05    16   0.530E-02
   85 T=  1292. E= -.13606838E+02 F= -.13940763E+02 E0= -.13940763E+02  EK= 0.33393E+00 SP= 0.00E+00 SK= 0.00E+00
       N       E                     dE             d eps       ncg     rms          rms(c)
DAV:   1    -0.141043987520E+02   -0.16372E+00   -0.18797E-01    16   0.415E+00    0.743E-02
DAV:   2    -0.141054739052E+02   -0.10752E-02   -0.10583E-02    32   0.102E+00    0.694E-02
DAV:   3    -0.141054707161E+02    0.31891E-05   -0.81274E-05    24   0.655E-02
   86 T=  1880. E= -.13619322E+02 F= -.14105471E+02 E0= -.14105471E+02  EK= 0.48615E+00 SP= 0.00E+00 SK= 0.00E+00
       N       E                     dE             d eps       ncg     rms          rms(c)
DAV:   1    -0.142249175152E+02   -0.11944E+00   -0.45329E-01    32   0.561E+00    0.121E-01
DAV:   2    -0.142256989968E+02   -0.78148E-03   -0.88517E-03    16   0.970E-01    0.908E-02
DAV:   3    -0.142257646791E+02   -0.65682E-04   -0.37790E-04    32   0.162E-01
   87 T=  2276. E= -.13637378E+02 F= -.14225765E+02 E0= -.14225765E+02  EK= 0.58839E+00 SP= 0.00E+00 SK= 0.00E+00
       N       E                     dE             d eps       ncg     rms          rms(c)
DAV:   1    -0.140788877133E+02    0.14681E+00   -0.57865E-01    16   0.684E+00    0.173E-01
DAV:   2    -0.140811710890E+02   -0.22834E-02   -0.23790E-02    32   0.144E+00    0.173E-01
DAV:   3    -0.140810216179E+02    0.14947E-03   -0.24536E-04    16   0.120E-01    0.128E-01
DAV:   4    -0.140810381100E+02   -0.16492E-04   -0.67235E-04    16   0.211E-01
   88 T=  1772. E= -.13622860E+02 F= -.14081038E+02 E0= -.14081038E+02  EK= 0.45818E+00 SP= 0.00E+00 SK= 0.00E+00
       N       E                     dE             d eps       ncg     rms          rms(c)
DAV:   1    -0.139363259376E+02    0.14470E+00   -0.85579E-01    16   0.941E+00    0.613E-01
DAV:   2    -0.139314591274E+02    0.48668E-02   -0.33376E-02    32   0.162E+00    0.225E-01
DAV:   3    -0.139313270772E+02    0.13205E-03   -0.73565E-04    16   0.259E-01    0.105E-01
DAV:   4    -0.139314535588E+02   -0.12648E-03   -0.26042E-04    16   0.171E-01    0.126E-02
DAV:   5    -0.139314938106E+02   -0.40252E-04   -0.27703E-05    24   0.451E-02
   89 T=  1300. E= -.13595348E+02 F= -.13931494E+02 E0= -.13931494E+02  EK= 0.33615E+00 SP= 0.00E+00 SK= 0.00E+00
       N       E                     dE             d eps       ncg     rms          rms(c)
DAV:   1    -0.141083750300E+02   -0.17692E+00   -0.50979E-01    24   0.728E+00    0.263E-01
DAV:   2    -0.141085842623E+02   -0.20923E-03   -0.73208E-03    24   0.847E-01    0.146E-01
DAV:   3    -0.141087348163E+02   -0.15055E-03   -0.23202E-04    32   0.148E-01    0.571E-02
DAV:   4    -0.141088882803E+02   -0.15346E-03   -0.81874E-05    16   0.789E-02    0.115E-02
DAV:   5    -0.141089443476E+02   -0.56067E-04   -0.93455E-06    32   0.253E-02
   90 T=  1858. E= -.13628550E+02 F= -.14108944E+02 E0= -.14108944E+02  EK= 0.48039E+00 SP= 0.00E+00 SK= 0.00E+00
       N       E                     dE             d eps       ncg     rms          rms(c)
DAV:   1    -0.142055437128E+02   -0.96655E-01   -0.60239E-01    24   0.687E+00    0.256E-01
DAV:   2    -0.142058966977E+02   -0.35298E-03   -0.11656E-02    16   0.110E+00    0.123E-01
DAV:   3    -0.142059312261E+02   -0.34528E-04   -0.14194E-04    24   0.124E-01
   91 T=  2206. E= -.13635624E+02 F= -.14205931E+02 E0= -.14205931E+02  EK= 0.57031E+00 SP= 0.00E+00 SK= 0.00E+00
       N       E                     dE             d eps       ncg     rms          rms(c)
DAV:   1    -0.140656434438E+02    0.14025E+00   -0.56443E-01    16   0.682E+00    0.243E-01
DAV:   2    -0.140659925546E+02   -0.34911E-03   -0.12782E-02    24   0.117E+00    0.904E-02
DAV:   3    -0.140660312780E+02   -0.38723E-04   -0.78775E-05    24   0.910E-02
   92 T=  1731. E= -.13618508E+02 F= -.14066031E+02 E0= -.14066031E+02  EK= 0.44752E+00 SP= 0.00E+00 SK= 0.00E+00
       N       E                     dE             d eps       ncg     rms          rms(c)
DAV:   1    -0.139197611542E+02    0.14623E+00   -0.47994E-01    16   0.622E+00    0.164E-01
DAV:   2    -0.139209725257E+02   -0.12114E-02   -0.12712E-02    32   0.106E+00    0.116E-01
DAV:   3    -0.139209707618E+02    0.17639E-05   -0.16105E-04    24   0.917E-02
   93 T=  1212. E= -.13607700E+02 F= -.13920971E+02 E0= -.13920971E+02  EK= 0.31327E+00 SP= 0.00E+00 SK= 0.00E+00
       N       E                     dE             d eps       ncg     rms          rms(c)
DAV:   1    -0.139424886022E+02   -0.21516E-01   -0.26329E-01    16   0.566E+00    0.178E-01
DAV:   2    -0.139433389853E+02   -0.85038E-03   -0.99150E-03    32   0.915E-01    0.894E-02
DAV:   3    -0.139434510493E+02   -0.11206E-03   -0.33636E-05    16   0.610E-02    0.472E-02
DAV:   4    -0.139435566055E+02   -0.10556E-03   -0.39849E-05    24   0.650E-02    0.553E-03
DAV:   5    -0.139435969792E+02   -0.40374E-04   -0.93474E-06    24   0.248E-02
   94 T=  1294. E= -.13609070E+02 F= -.13943597E+02 E0= -.13943597E+02  EK= 0.33453E+00 SP= 0.00E+00 SK= 0.00E+00
       N       E                     dE             d eps       ncg     rms          rms(c)
DAV:   1    -0.141117195701E+02   -0.16816E+00   -0.18553E-01    16   0.434E+00    0.655E-02
DAV:   2    -0.141125385812E+02   -0.81901E-03   -0.82121E-03    24   0.940E-01    0.568E-02
DAV:   3    -0.141125387112E+02   -0.12999E-06   -0.57171E-05    24   0.582E-02
   95 T=  1895. E= -.13622631E+02 F= -.14112539E+02 E0= -.14112539E+02  EK= 0.48991E+00 SP= 0.00E+00 SK= 0.00E+00
       N       E                     dE             d eps       ncg     rms          rms(c)
DAV:   1    -0.142142916282E+02   -0.10175E+00   -0.43210E-01    16   0.607E+00    0.106E-01
DAV:   2    -0.142163261860E+02   -0.20346E-02   -0.20566E-02    16   0.135E+00    0.123E-01
DAV:   3    -0.142162564897E+02    0.69696E-04   -0.20943E-04    32   0.136E-01
   96 T=  2238. E= -.13637678E+02 F= -.14216256E+02 E0= -.14216256E+02  EK= 0.57858E+00 SP= 0.00E+00 SK= 0.00E+00
       N       E                     dE             d eps       ncg     rms          rms(c)
DAV:   1    -0.140557834445E+02    0.16054E+00   -0.54184E-01    24   0.739E+00    0.176E-01
DAV:   2    -0.140570129156E+02   -0.12295E-02   -0.12491E-02    16   0.110E+00    0.135E-01
DAV:   3    -0.140570893546E+02   -0.76439E-04   -0.70938E-04    16   0.233E-01
   97 T=  1698. E= -.13618199E+02 F= -.14057089E+02 E0= -.14057089E+02  EK= 0.43889E+00 SP= 0.00E+00 SK= 0.00E+00
       N       E                     dE             d eps       ncg     rms          rms(c)
DAV:   1    -0.139404385531E+02    0.11657E+00   -0.10404E+00    16   0.116E+01    0.653E-01
DAV:   2    -0.139355742652E+02    0.48643E-02   -0.37869E-02    24   0.172E+00    0.241E-01
DAV:   3    -0.139355915395E+02   -0.17274E-04   -0.63396E-04    16   0.256E-01
   98 T=  1313. E= -.13596031E+02 F= -.13935592E+02 E0= -.13935592E+02  EK= 0.33956E+00 SP= 0.00E+00 SK= 0.00E+00
       N       E                     dE             d eps       ncg     rms          rms(c)
DAV:   1    -0.141207268542E+02   -0.18515E+00   -0.52981E-01    24   0.697E+00    0.284E-01
DAV:   2    -0.141211041548E+02   -0.37730E-03   -0.42979E-03    16   0.661E-01    0.164E-01
DAV:   3    -0.141215509699E+02   -0.44682E-03   -0.48821E-04    24   0.206E-01    0.466E-02
DAV:   4    -0.141217155833E+02   -0.16461E-03   -0.21644E-04    16   0.108E-01    0.178E-02
DAV:   5    -0.141217799369E+02   -0.64354E-04   -0.30692E-05    24   0.430E-02
   99 T=  1905. E= -.13629217E+02 F= -.14121780E+02 E0= -.14121780E+02  EK= 0.49256E+00 SP= 0.00E+00 SK= 0.00E+00
       N       E                     dE             d eps       ncg     rms          rms(c)
DAV:   1    -0.141974622313E+02   -0.75747E-01   -0.65303E-01    24   0.688E+00    0.264E-01
DAV:   2    -0.141978628670E+02   -0.40064E-03   -0.12820E-02    16   0.116E+00    0.121E-01
DAV:   3    -0.141979299203E+02   -0.67053E-04   -0.17346E-04    32   0.132E-01
  100 T=  2185. E= -.13633181E+02 F= -.14197930E+02 E0= -.14197930E+02  EK= 0.56475E+00 SP= 0.00E+00 SK= 0.00E+00
