 vasp.5.4.4.18Apr17-6-g9f103f2a35 (build Dec 28 2021 15:39:15) complex           
 executed on             LinuxGNU date 2021.12.31  11:01:35
 running on    4 total cores
 distrk:  each k-point on    4 cores,    1 groups
 distr:  one band on NCORES_PER_BAND=   1 cores,    4 groups


--------------------------------------------------------------------------------------------------------


 INCAR:
 POTCAR:   PAW_RPBE O 08Apr2002                   
 POTCAR:   PAW_RPBE H 15Jun2001                   
 POTCAR:   PAW_RPBE O 08Apr2002                   
   VRHFIN =O: s2p4                                                              
   LEXCH  = PE                                                                  
   EATOM  =   432.3788 eV,   31.7789 Ry                                         
                                                                                
   TITEL  = PAW_RPBE O 08Apr2002                                                
   LULTRA =        F    use ultrasoft PP ?                                      
   IUNSCR =        0    unscreen: 0-lin 1-nonlin 2-no                           
   RPACOR =     .000    partial core radius                                     
   POMASS =   16.000; ZVAL   =    6.000    mass and valenz                      
   RCORE  =    1.520    outmost cutoff radius                                   
   RWIGS  =    1.550; RWIGS  =     .820    wigner-seitz radius (au A)           
   ENMAX  =  400.000; ENMIN  =  300.000 eV                                      
   ICORE  =        2    local potential                                         
   LCOR   =        T    correct aug charges                                     
   LPAW   =        T    paw PP                                                  
   EAUG   =  605.392                                                            
   DEXC   =     .000                                                            
   RMAX   =    2.264    core radius for proj-oper                               
   RAUG   =    1.300    factor for augmentation sphere                          
   RDEP   =    1.550    radius for radial grids                                 
   QCUT   =   -5.520; QGAM   =   11.041    optimization parameters              
                                                                                
   Description                                                                  
     l     E      TYP  RCUT    TYP  RCUT                                        
     0   .000     23  1.200                                                     
     0  -.700     23  1.200                                                     
     1   .000     23  1.520                                                     
     1   .600     23  1.520                                                     
     2   .000      7  1.500                                                     
  local pseudopotential read in
  atomic valenz-charges read in
  non local Contribution for L=           0  read in
    real space projection operators read in
  non local Contribution for L=           0  read in
    real space projection operators read in
  non local Contribution for L=           1  read in
    real space projection operators read in
  non local Contribution for L=           1  read in
    real space projection operators read in
    PAW grid and wavefunctions read in

   number of l-projection  operators is LMAX  =           4
   number of lm-projection operators is LMMAX =           8

 POTCAR:   PAW_RPBE H 15Jun2001                   
   VRHFIN =H: ultrasoft test                                                    
   LEXCH  = PE                                                                  
   EATOM  =    12.4884 eV,     .9179 Ry                                         
                                                                                
   TITEL  = PAW_RPBE H 15Jun2001                                                
   LULTRA =        F    use ultrasoft PP ?                                      
   IUNSCR =        0    unscreen: 0-lin 1-nonlin 2-no                           
   RPACOR =     .000    partial core radius                                     
   POMASS =    1.000; ZVAL   =    1.000    mass and valenz                      
   RCORE  =    1.100    outmost cutoff radius                                   
   RWIGS  =     .700; RWIGS  =     .370    wigner-seitz radius (au A)           
   ENMAX  =  250.000; ENMIN  =  200.000 eV                                      
   RCLOC  =     .701    cutoff for local pot                                    
   LCOR   =        T    correct aug charges                                     
   LPAW   =        T    paw PP                                                  
   EAUG   =  400.000                                                            
   RMAX   =    2.174    core radius for proj-oper                               
   RAUG   =    1.200    factor for augmentation sphere                          
   RDEP   =    1.112    radius for radial grids                                 
   QCUT   =   -5.749; QGAM   =   11.498    optimization parameters              
                                                                                
   Description                                                                  
     l     E      TYP  RCUT    TYP  RCUT                                        
     0   .000     23  1.100                                                     
     0   .500     23  1.100                                                     
     1  -.300     23  1.100                                                     
  local pseudopotential read in
  atomic valenz-charges read in
  non local Contribution for L=           0  read in
    real space projection operators read in
  non local Contribution for L=           0  read in
    real space projection operators read in
  non local Contribution for L=           1  read in
    real space projection operators read in
    PAW grid and wavefunctions read in

   number of l-projection  operators is LMAX  =           3
   number of lm-projection operators is LMMAX =           5

 PAW_RPBE O 08Apr2002                   :
 energy of atom  1       EATOM= -432.3788
 kinetic energy error for atom=    0.1156 (will be added to EATOM!!)
 PAW_RPBE H 15Jun2001                   :
 energy of atom  2       EATOM=  -12.4884
 kinetic energy error for atom=    0.0098 (will be added to EATOM!!)


 POSCAR: H2O _2                                  
  positions in cartesian coordinates
  No initial velocities read in
 exchange correlation table for  LEXCH =        8
   RHO(1)=    0.500       N(1)  =     2000
   RHO(2)=  100.500       N(2)  =     4000



--------------------------------------------------------------------------------------------------------


 ion  position               nearest neighbor table
   1  0.000  0.000  0.000-   2 0.95   3 0.95
   2  0.092  0.881  0.000-   1 0.95
   3  0.092  0.119  0.000-   1 0.95

  LATTYP: Found a simple cubic cell.
 ALAT       =     6.3501600000
  
  Lattice vectors:
  
 A1 = (   6.3501600000,   0.0000000000,   0.0000000000)
 A2 = (   0.0000000000,   6.3501600000,   0.0000000000)
 A3 = (   0.0000000000,   0.0000000000,   6.3501600000)


Analysis of symmetry for initial positions (statically):
=====================================================================
 Subroutine PRICEL returns:
 Original cell was already a primitive cell.
 

 Routine SETGRP: Setting up the symmetry group for a 
 simple cubic supercell.


 Subroutine GETGRP returns: Found  4 space group operations
 (whereof  4 operations were pure point group operations)
 out of a pool of 48 trial point group operations.


The static configuration has the point symmetry C_2v.


Analysis of symmetry for dynamics (positions and initial velocities):
=====================================================================
 Subroutine PRICEL returns:
 Original cell was already a primitive cell.
 

 Routine SETGRP: Setting up the symmetry group for a 
 simple cubic supercell.


 Subroutine GETGRP returns: Found  2 space group operations
 (whereof  2 operations were pure point group operations)
 out of a pool of 48 trial point group operations.


The dynamic configuration has the point symmetry C_1h.


Analysis of constrained symmetry for selective dynamics:
=====================================================================
 Subroutine PRICEL returns:
 Original cell was already a primitive cell.
 

 Routine SETGRP: Setting up the symmetry group for a 
 simple cubic supercell.


 Subroutine GETGRP returns: Found  2 space group operations
 (whereof  2 operations were pure point group operations)
 out of a pool of 48 trial point group operations.


The constrained configuration has the point symmetry C_1h.


 Subroutine INISYM returns: Found  2 space group operations
 (whereof  2 operations are pure point group operations),
 and found     1 'primitive' translations



 KPOINTS: Gamma-point only                        
  k-points in reciprocal lattice
Space group operators:
 irot       det(A)        alpha          n_x          n_y          n_z        tau_x        tau_y        tau_z
    1     1.000000     0.000000     1.000000     0.000000     0.000000     0.000000     0.000000     0.000000
    2    -1.000000   180.000000     0.000000     0.000000     1.000000     0.000000     0.000000     0.000000


--------------------------------------------------------------------------------------------------------




 Dimension of arrays:
   k-points           NKPTS =      1   k-points in BZ     NKDIM =      1   number of bands    NBANDS=      8
   number of dos      NEDOS =    301   number of ions     NIONS =      3
   non local maximal  LDIM  =      4   non local SUM 2l+1 LMDIM =      8
   total plane-waves  NPLWV =  32768
   max r-space proj   IRMAX =      1   max aug-charges    IRDMAX=   1860
   dimension x,y,z NGX =    32 NGY =   32 NGZ =   32
   dimension x,y,z NGXF=    64 NGYF=   64 NGZF=   64
   support grid    NGXF=    64 NGYF=   64 NGZF=   64
   ions per type =               1   2
   NGX,Y,Z   is equivalent  to a cutoff of   8.38,  8.38,  8.38 a.u.
   NGXF,Y,Z  is equivalent  to a cutoff of  16.76, 16.76, 16.76 a.u.

 SYSTEM =  unknown system                          
 POSCAR =  H2O _2                                  

 Startparameter for this run:
   NWRITE =      2    write-flag & timer
   PREC   = normal    normal or accurate (medium, high low for compatibility)
   ISTART =      0    job   : 0-new  1-cont  2-samecut
   ICHARG =      2    charge: 1-file 2-atom 10-const
   ISPIN  =      1    spin polarized calculation?
   LNONCOLLINEAR =      F non collinear calculations
   LSORBIT =      F    spin-orbit coupling
   INIWAV =      1    electr: 0-lowe 1-rand  2-diag
   LASPH  =      F    aspherical Exc in radial PAW
   METAGGA=      F    non-selfconsistent MetaGGA calc.

 Electronic Relaxation 1
   ENCUT  =  400.0 eV  29.40 Ry    5.42 a.u.  10.36 10.36 10.36*2*pi/ulx,y,z
   ENINI  =  400.0     initial cutoff
   ENAUG  =  605.4 eV  augmentation charge cutoff
   NELM   =     60;   NELMIN=  2; NELMDL= -5     # of ELM steps 
   EDIFF  = 0.1E-03   stopping-criterion for ELM
   LREAL  =      F    real-space projection
   NLSPLINE    = F    spline interpolate recip. space projectors
   LCOMPAT=      F    compatible to vasp.4.4
   GGA_COMPAT  = T    GGA compatible to vasp.4.4-vasp.4.6
   LMAXPAW     = -100 max onsite density
   LMAXMIX     =    2 max onsite mixed and CHGCAR
   VOSKOWN=      0    Vosko Wilk Nusair interpolation
   ROPT   =    0.00000   0.00000
 Ionic relaxation
   EDIFFG = 0.1E-02   stopping-criterion for IOM
   NSW    =    100    number of steps for IOM
   NBLOCK =      1;   KBLOCK =    100    inner block; outer block 
   IBRION =      0    ionic relax: 0-MD 1-quasi-New 2-CG
   NFREE  =      0    steps in history (QN), initial steepest desc. (CG)
   ISIF   =      0    stress and relaxation
   IWAVPR =     12    prediction:  0-non 1-charg 2-wave 3-comb
   ISYM   =      2    0-nonsym 1-usesym 2-fastsym
   LCORR  =      T    Harris-Foulkes like correction to forces

   POTIM  = 1.0000    time-step for ionic-motion
   TEIN   = 2000.0    initial temperature
   TEBEG  = 2000.0;   TEEND  =2000.0 temperature during run
   SMASS  =  -3.00    Nose mass-parameter (am)
   estimated Nose-frequenzy (Omega)   =  0.10E-29 period in steps =****** mass=  -0.922E-27a.u.
   SCALEE = 1.0000    scale energy and forces
   NPACO  =    256;   APACO  = 16.0  distance and # of slots for P.C.
   PSTRESS=    0.0 pullay stress

  Mass of Ions in am
   POMASS =  16.00  1.00
  Ionic Valenz
   ZVAL   =   6.00  1.00
  Atomic Wigner-Seitz radii
   RWIGS  =  -1.00 -1.00
  virtual crystal weights 
   VCA    =   1.00  1.00
   NELECT =       8.0000    total number of electrons
   NUPDOWN=      -1.0000    fix difference up-down

 DOS related values:
   EMIN   =  10.00;   EMAX   =-10.00  energy-range for DOS
   EFERMI =   0.00
   ISMEAR =     0;   SIGMA  =   0.10  broadening in eV -4-tet -1-fermi 0-gaus

 Electronic relaxation 2 (details)
   IALGO  =     38    algorithm
   LDIAG  =      T    sub-space diagonalisation (order eigenvalues)
   LSUBROT=      F    optimize rotation matrix (better conditioning)
   TURBO    =      0    0=normal 1=particle mesh
   IRESTART =      0    0=no restart 2=restart with 2 vectors
   NREBOOT  =      0    no. of reboots
   NMIN     =      0    reboot dimension
   EREF     =   0.00    reference energy to select bands
   IMIX   =      4    mixing-type and parameters
     AMIX     =   0.40;   BMIX     =  1.00
     AMIX_MAG =   1.60;   BMIX_MAG =  1.00
     AMIN     =   0.10
     WC   =   100.;   INIMIX=   1;  MIXPRE=   1;  MAXMIX= -45

 Intra band minimization:
   WEIMIN = 0.0010     energy-eigenvalue tresh-hold
   EBREAK =  0.31E-05  absolut break condition
   DEPER  =   0.30     relativ break condition  

   TIME   =   0.40     timestep for ELM

  volume/ion in A,a.u.               =      85.36       576.01
  Fermi-wavevector in a.u.,A,eV,Ry     =   0.515609  0.974359  3.617139  0.265852
  Thomas-Fermi vector in A             =   1.531137

 Write flags
   LWAVE        =      T    write WAVECAR
   LDOWNSAMPLE  =      F    k-point downsampling of WAVECAR
   LCHARG       =      T    write CHGCAR
   LVTOT        =      F    write LOCPOT, total local potential
   LVHAR        =      F    write LOCPOT, Hartree potential only
   LELF         =      F    write electronic localiz. function (ELF)
   LORBIT       =      0    0 simple, 1 ext, 2 COOP (PROOUT), +10 PAW based schemes


 Dipole corrections
   LMONO  =      F    monopole corrections only (constant potential shift)
   LDIPOL =      F    correct potential (dipole corrections)
   IDIPOL =      0    1-x, 2-y, 3-z, 4-all directions 
   EPSILON=  1.0000000 bulk dielectric constant

 Exchange correlation treatment:
   GGA     =    --    GGA type
   LEXCH   =     8    internal setting for exchange type
   VOSKOWN=      0    Vosko Wilk Nusair interpolation
   LHFCALC =     F    Hartree Fock is set to
   LHFONE  =     F    Hartree Fock one center treatment
   AEXX    =    0.0000 exact exchange contribution

 Linear response parameters
   LEPSILON=     F    determine dielectric tensor
   LRPA    =     F    only Hartree local field effects (RPA)
   LNABLA  =     F    use nabla operator in PAW spheres
   LVEL    =     F    velocity operator in full k-point grid
   LINTERFAST=   F  fast interpolation
   KINTER  =     0    interpolate to denser k-point grid
   CSHIFT  =0.1000    complex shift for real part using Kramers Kronig
   OMEGAMAX=  -1.0    maximum frequency
   DEG_THRESHOLD= 0.2000000E-02 threshold for treating states as degnerate
   RTIME   =   -0.100 relaxation time in fs
  (WPLASMAI=    0.000 imaginary part of plasma frequency in eV, 0.658/RTIME)
   DFIELD  = 0.0000000 0.0000000 0.0000000 field for delta impulse in time

 Orbital magnetization related:
   ORBITALMAG=     F  switch on orbital magnetization
   LCHIMAG   =     F  perturbation theory with respect to B field
   DQ        =  0.001000  dq finite difference perturbation B field
   LLRAUG    =     F  two centre corrections for induced B field



--------------------------------------------------------------------------------------------------------


 molecular dynamics for ions
   using a microcanonical ensemble
   using selective dynamics as specified on POSCAR
   WARNING: If single coordinates had been selected the selection of coordinates
            is made according to the corresponding   d i r e c t   coordinates!
            Don't support selection of single cartesian coordinates -- sorry ... !
 charge density and potential will be updated during run
 non-spin polarized calculation
 Variant of blocked Davidson
 Davidson routine will perform the subspace rotation
 perform sub-space diagonalisation
    after iterative eigenvector-optimisation
 modified Broyden-mixing scheme, WC =      100.0
 initial mixing is a Kerker type mixing with AMIX =  0.4000 and BMIX =      1.0000
 Hartree-type preconditioning will be used
 using additional bands            4
 reciprocal scheme for non local part
 calculate Harris-corrections to forces   (improved forces if not selfconsistent)
 use gradient corrections 
 use of overlap-Matrix (Vanderbilt PP)
 Gauss-broadening in eV      SIGMA  =   0.10


--------------------------------------------------------------------------------------------------------


  energy-cutoff  :      400.00
  volume of cell :      256.07
      direct lattice vectors                 reciprocal lattice vectors
     6.350160000  0.000000000  0.000000000     0.157476347  0.000000000  0.000000000
     0.000000000  6.350160000  0.000000000     0.000000000  0.157476347  0.000000000
     0.000000000  0.000000000  6.350160000     0.000000000  0.000000000  0.157476347

  length of vectors
     6.350160000  6.350160000  6.350160000     0.157476347  0.157476347  0.157476347



 k-points in units of 2pi/SCALE and weight: Gamma-point only                        
   0.00000000  0.00000000  0.00000000       1.000

 k-points in reciprocal lattice and weights: Gamma-point only                        
   0.00000000  0.00000000  0.00000000       1.000

 position of ions in fractional coordinates (direct lattice) 
   0.00000000  0.00000000  0.00000000
   0.09166667  0.88083333  0.00000000
   0.09166667  0.11916667  0.00000000

 position of ions in cartesian coordinates  (Angst):
   0.00000000  0.00000000  0.00000000
   0.58209800  5.59343260  0.00000000
   0.58209800  0.75672740  0.00000000



--------------------------------------------------------------------------------------------------------


 k-point  1 :   0.0000 0.0000 0.0000  plane waves:    4697

 maximum and minimum number of plane-waves per node :      4697     4697

 maximum number of plane-waves:      4697
 maximum index in each direction: 
   IXMAX=   10   IYMAX=   10   IZMAX=   10
   IXMIN=  -10   IYMIN=  -10   IZMIN=  -10


 serial   3D FFT for wavefunctions
 parallel 3D FFT for charge:
    minimum data exchange during FFTs selected (reduces bandwidth)


 total amount of memory used by VASP MPI-rank0    38467. kBytes
=======================================================================

   base      :      30000. kBytes
   nonl-proj :        827. kBytes
   fftplans  :       2401. kBytes
   grid      :       5079. kBytes
   one-center:          9. kBytes
   wavefun   :        151. kBytes

     INWAV:  cpu time    0.0000: real time    0.0001
 Broyden mixing: mesh for mixing (old mesh)
   NGX = 21   NGY = 21   NGZ = 21
  (NGX  = 64   NGY  = 64   NGZ  = 64)
  gives a total of   9261 points

 initial charge density was supplied:
 charge density of overlapping atoms calculated
 number of electron       8.0000000 magnetization 
 keeping initial charge density in first step


--------------------------------------------------------------------------------------------------------


 Maximum index for augmentation-charges          395 (set IRDMAX)


--------------------------------------------------------------------------------------------------------


 First call to EWALD:  gamma=   0.279
 Maximum number of real-space cells 3x 3x 3
 Maximum number of reciprocal cells 3x 3x 3

    FEWALD:  cpu time    0.0062: real time    0.0062


--------------------------------------- Iteration      1(   1)  ---------------------------------------


    POTLOK:  cpu time    0.0258: real time    0.0258
    SETDIJ:  cpu time    0.0007: real time    0.0007
     EDDAV:  cpu time    0.0081: real time    0.0081
       DOS:  cpu time    0.0001: real time    0.0001
    --------------------------------------------
      LOOP:  cpu time    0.0347: real time    0.0347

 eigenvalue-minimisations  :    16
 total energy-change (2. order) : 0.3944922E+02  (-0.1817871E+03)
 number of electron       8.0000000 magnetization 
 augmentation part        8.0000000 magnetization 

 Free energy of the ion-electron system (eV)
  ---------------------------------------------------
  alpha Z        PSCENC =         0.87564028
  Ewald energy   TEWEN  =       -13.80331150
  -Hartree energ DENC   =      -348.16693738
  -exchange      EXHF   =         0.00000000
  -V(xc)+E(xc)   XCENC  =        32.30093936
  PAW double counting   =       247.56105404     -249.42875511
  entropy T*S    EENTRO =        -0.00000000
  eigenvalues    EBANDS =       -87.10986918
  atomic energy  EATOM  =       457.22046137
  Solvation  Ediel_sol  =         0.00000000
  ---------------------------------------------------
  free energy    TOTEN  =        39.44922188 eV

  energy without entropy =       39.44922188  energy(sigma->0) =       39.44922188


--------------------------------------------------------------------------------------------------------




--------------------------------------- Iteration      1(   2)  ---------------------------------------


     EDDAV:  cpu time    0.0150: real time    0.0150
       DOS:  cpu time    0.0001: real time    0.0001
    --------------------------------------------
      LOOP:  cpu time    0.0151: real time    0.0151

 eigenvalue-minimisations  :    32
 total energy-change (2. order) :-0.5241038E+02  (-0.5241038E+02)
 number of electron       8.0000000 magnetization 
 augmentation part        8.0000000 magnetization 

 Free energy of the ion-electron system (eV)
  ---------------------------------------------------
  alpha Z        PSCENC =         0.87564028
  Ewald energy   TEWEN  =       -13.80331150
  -Hartree energ DENC   =      -348.16693738
  -exchange      EXHF   =         0.00000000
  -V(xc)+E(xc)   XCENC  =        32.30093936
  PAW double counting   =       247.56105404     -249.42875511
  entropy T*S    EENTRO =        -0.00000000
  eigenvalues    EBANDS =      -139.52024743
  atomic energy  EATOM  =       457.22046137
  Solvation  Ediel_sol  =         0.00000000
  ---------------------------------------------------
  free energy    TOTEN  =       -12.96115637 eV

  energy without entropy =      -12.96115637  energy(sigma->0) =      -12.96115637


--------------------------------------------------------------------------------------------------------




--------------------------------------- Iteration      1(   3)  ---------------------------------------


     EDDAV:  cpu time    0.0085: real time    0.0085
       DOS:  cpu time    0.0001: real time    0.0001
    --------------------------------------------
      LOOP:  cpu time    0.0086: real time    0.0086

 eigenvalue-minimisations  :    16
 total energy-change (2. order) :-0.3329846E+01  (-0.3329846E+01)
 number of electron       8.0000000 magnetization 
 augmentation part        8.0000000 magnetization 

 Free energy of the ion-electron system (eV)
  ---------------------------------------------------
  alpha Z        PSCENC =         0.87564028
  Ewald energy   TEWEN  =       -13.80331150
  -Hartree energ DENC   =      -348.16693738
  -exchange      EXHF   =         0.00000000
  -V(xc)+E(xc)   XCENC  =        32.30093936
  PAW double counting   =       247.56105404     -249.42875511
  entropy T*S    EENTRO =        -0.00000000
  eigenvalues    EBANDS =      -142.85009337
  atomic energy  EATOM  =       457.22046137
  Solvation  Ediel_sol  =         0.00000000
  ---------------------------------------------------
  free energy    TOTEN  =       -16.29100232 eV

  energy without entropy =      -16.29100232  energy(sigma->0) =      -16.29100232


--------------------------------------------------------------------------------------------------------




--------------------------------------- Iteration      1(   4)  ---------------------------------------


     EDDAV:  cpu time    0.0112: real time    0.0113
       DOS:  cpu time    0.0001: real time    0.0001
    --------------------------------------------
      LOOP:  cpu time    0.0113: real time    0.0113

 eigenvalue-minimisations  :    24
 total energy-change (2. order) :-0.3362868E-01  (-0.3362868E-01)
 number of electron       8.0000000 magnetization 
 augmentation part        8.0000000 magnetization 

 Free energy of the ion-electron system (eV)
  ---------------------------------------------------
  alpha Z        PSCENC =         0.87564028
  Ewald energy   TEWEN  =       -13.80331150
  -Hartree energ DENC   =      -348.16693738
  -exchange      EXHF   =         0.00000000
  -V(xc)+E(xc)   XCENC  =        32.30093936
  PAW double counting   =       247.56105404     -249.42875511
  entropy T*S    EENTRO =        -0.00000000
  eigenvalues    EBANDS =      -142.88372205
  atomic energy  EATOM  =       457.22046137
  Solvation  Ediel_sol  =         0.00000000
  ---------------------------------------------------
  free energy    TOTEN  =       -16.32463100 eV

  energy without entropy =      -16.32463100  energy(sigma->0) =      -16.32463100


--------------------------------------------------------------------------------------------------------




--------------------------------------- Iteration      1(   5)  ---------------------------------------


     EDDAV:  cpu time    0.0153: real time    0.0153
       DOS:  cpu time    0.0001: real time    0.0001
    CHARGE:  cpu time    0.0040: real time    0.0040
    MIXING:  cpu time    0.0012: real time    0.0012
    --------------------------------------------
      LOOP:  cpu time    0.0206: real time    0.0206

 eigenvalue-minimisations  :    32
 total energy-change (2. order) :-0.4295919E-04  (-0.4295923E-04)
 number of electron       8.0000134 magnetization 
 augmentation part        0.8401590 magnetization 

 Broyden mixing:
  rms(total) = 0.78704E+00    rms(broyden)= 0.78519E+00
  rms(prec ) = 0.13820E+01
  weight for this iteration     100.00

 Free energy of the ion-electron system (eV)
  ---------------------------------------------------
  alpha Z        PSCENC =         0.87564028
  Ewald energy   TEWEN  =       -13.80331150
  -Hartree energ DENC   =      -348.16693738
  -exchange      EXHF   =         0.00000000
  -V(xc)+E(xc)   XCENC  =        32.30093936
  PAW double counting   =       247.56105404     -249.42875511
  entropy T*S    EENTRO =        -0.00000000
  eigenvalues    EBANDS =      -142.88376501
  atomic energy  EATOM  =       457.22046137
  Solvation  Ediel_sol  =         0.00000000
  ---------------------------------------------------
  free energy    TOTEN  =       -16.32467396 eV

  energy without entropy =      -16.32467396  energy(sigma->0) =      -16.32467396


--------------------------------------------------------------------------------------------------------




--------------------------------------- Iteration      1(   6)  ---------------------------------------


    POTLOK:  cpu time    0.0239: real time    0.0239
    SETDIJ:  cpu time    0.0007: real time    0.0007
     EDDAV:  cpu time    0.0086: real time    0.0086
       DOS:  cpu time    0.0001: real time    0.0001
    CHARGE:  cpu time    0.0039: real time    0.0039
    MIXING:  cpu time    0.0010: real time    0.0010
    --------------------------------------------
      LOOP:  cpu time    0.0382: real time    0.0382

 eigenvalue-minimisations  :    16
 total energy-change (2. order) : 0.1950417E+01  (-0.9397856E+00)
 number of electron       8.0000113 magnetization 
 augmentation part        0.7069520 magnetization 

 Broyden mixing:
  rms(total) = 0.30255E+00    rms(broyden)= 0.30205E+00
  rms(prec ) = 0.44742E+00
  weight for this iteration     100.00

 eigenvalues of (default mixing * dielectric matrix)
  average eigenvalue GAMMA=   0.9294
  0.9294

 Free energy of the ion-electron system (eV)
  ---------------------------------------------------
  alpha Z        PSCENC =         0.87564028
  Ewald energy   TEWEN  =       -13.80331150
  -Hartree energ DENC   =      -372.55266481
  -exchange      EXHF   =         0.00000000
  -V(xc)+E(xc)   XCENC  =        33.67148413
  PAW double counting   =       304.27301737     -306.49317215
  entropy T*S    EENTRO =        -0.00000000
  eigenvalues    EBANDS =      -117.56571147
  atomic energy  EATOM  =       457.22046137
  Solvation  Ediel_sol  =         0.00000000
  ---------------------------------------------------
  free energy    TOTEN  =       -14.37425678 eV

  energy without entropy =      -14.37425678  energy(sigma->0) =      -14.37425678


--------------------------------------------------------------------------------------------------------




--------------------------------------- Iteration      1(   7)  ---------------------------------------


    POTLOK:  cpu time    0.0223: real time    0.0223
    SETDIJ:  cpu time    0.0007: real time    0.0007
     EDDAV:  cpu time    0.0126: real time    0.0126
       DOS:  cpu time    0.0001: real time    0.0001
    CHARGE:  cpu time    0.0039: real time    0.0039
    MIXING:  cpu time    0.0010: real time    0.0010
    --------------------------------------------
      LOOP:  cpu time    0.0405: real time    0.0405

 eigenvalue-minimisations  :    24
 total energy-change (2. order) : 0.1111228E+00  (-0.1523551E-01)
 number of electron       8.0000112 magnetization 
 augmentation part        0.7007179 magnetization 

 Broyden mixing:
  rms(total) = 0.18755E+00    rms(broyden)= 0.18752E+00
  rms(prec ) = 0.27997E+00
  weight for this iteration     100.00

 eigenvalues of (default mixing * dielectric matrix)
  average eigenvalue GAMMA=   1.7495
  1.0539  2.4450

 Free energy of the ion-electron system (eV)
  ---------------------------------------------------
  alpha Z        PSCENC =         0.87564028
  Ewald energy   TEWEN  =       -13.80331150
  -Hartree energ DENC   =      -376.72747107
  -exchange      EXHF   =         0.00000000
  -V(xc)+E(xc)   XCENC  =        33.89558967
  PAW double counting   =       318.77649749     -320.96657851
  entropy T*S    EENTRO =        -0.00000000
  eigenvalues    EBANDS =      -113.53396171
  atomic energy  EATOM  =       457.22046137
  Solvation  Ediel_sol  =         0.00000000
  ---------------------------------------------------
  free energy    TOTEN  =       -14.26313398 eV

  energy without entropy =      -14.26313398  energy(sigma->0) =      -14.26313398


--------------------------------------------------------------------------------------------------------




--------------------------------------- Iteration      1(   8)  ---------------------------------------


    POTLOK:  cpu time    0.0245: real time    0.0246
    SETDIJ:  cpu time    0.0007: real time    0.0007
     EDDAV:  cpu time    0.0094: real time    0.0094
       DOS:  cpu time    0.0001: real time    0.0001
    CHARGE:  cpu time    0.0043: real time    0.0043
    MIXING:  cpu time    0.0012: real time    0.0012
    --------------------------------------------
      LOOP:  cpu time    0.0402: real time    0.0403

 eigenvalue-minimisations  :    16
 total energy-change (2. order) : 0.7522330E-01  (-0.6747019E-02)
 number of electron       8.0000112 magnetization 
 augmentation part        0.6999800 magnetization 

 Broyden mixing:
  rms(total) = 0.22400E-01    rms(broyden)= 0.22395E-01
  rms(prec ) = 0.56719E-01
  weight for this iteration     100.00

 eigenvalues of (default mixing * dielectric matrix)
  average eigenvalue GAMMA=   1.5216
  2.3740  1.0735  1.1173

 Free energy of the ion-electron system (eV)
  ---------------------------------------------------
  alpha Z        PSCENC =         0.87564028
  Ewald energy   TEWEN  =       -13.80331150
  -Hartree energ DENC   =      -382.00303410
  -exchange      EXHF   =         0.00000000
  -V(xc)+E(xc)   XCENC  =        34.20066031
  PAW double counting   =       337.87491052     -340.01669564
  entropy T*S    EENTRO =        -0.00000000
  eigenvalues    EBANDS =      -108.53654192
  atomic energy  EATOM  =       457.22046137
  Solvation  Ediel_sol  =         0.00000000
  ---------------------------------------------------
  free energy    TOTEN  =       -14.18791067 eV

  energy without entropy =      -14.18791067  energy(sigma->0) =      -14.18791067


--------------------------------------------------------------------------------------------------------




--------------------------------------- Iteration      1(   9)  ---------------------------------------


    POTLOK:  cpu time    0.0229: real time    0.0229
    SETDIJ:  cpu time    0.0007: real time    0.0007
     EDDAV:  cpu time    0.0125: real time    0.0125
       DOS:  cpu time    0.0001: real time    0.0001
    CHARGE:  cpu time    0.0039: real time    0.0039
    MIXING:  cpu time    0.0011: real time    0.0011
    --------------------------------------------
      LOOP:  cpu time    0.0411: real time    0.0411

 eigenvalue-minimisations  :    24
 total energy-change (2. order) :-0.5926862E-02  (-0.9452474E-03)
 number of electron       8.0000111 magnetization 
 augmentation part        0.6958299 magnetization 

 Broyden mixing:
  rms(total) = 0.15766E-01    rms(broyden)= 0.15751E-01
  rms(prec ) = 0.37585E-01
  weight for this iteration     100.00

 eigenvalues of (default mixing * dielectric matrix)
  average eigenvalue GAMMA=   1.9165
  0.9933  0.9933  3.0710  2.6083

 Free energy of the ion-electron system (eV)
  ---------------------------------------------------
  alpha Z        PSCENC =         0.87564028
  Ewald energy   TEWEN  =       -13.80331150
  -Hartree energ DENC   =      -382.78217542
  -exchange      EXHF   =         0.00000000
  -V(xc)+E(xc)   XCENC  =        34.22849067
  PAW double counting   =       336.42016423     -338.56828671
  entropy T*S    EENTRO =        -0.00000000
  eigenvalues    EBANDS =      -107.78482045
  atomic energy  EATOM  =       457.22046137
  Solvation  Ediel_sol  =         0.00000000
  ---------------------------------------------------
  free energy    TOTEN  =       -14.19383754 eV

  energy without entropy =      -14.19383754  energy(sigma->0) =      -14.19383754


--------------------------------------------------------------------------------------------------------




--------------------------------------- Iteration      1(  10)  ---------------------------------------


    POTLOK:  cpu time    0.0231: real time    0.0231
    SETDIJ:  cpu time    0.0007: real time    0.0007
     EDDAV:  cpu time    0.0089: real time    0.0089
       DOS:  cpu time    0.0001: real time    0.0001
    CHARGE:  cpu time    0.0042: real time    0.0042
    MIXING:  cpu time    0.0012: real time    0.0012
    --------------------------------------------
      LOOP:  cpu time    0.0381: real time    0.0381

 eigenvalue-minimisations  :    16
 total energy-change (2. order) :-0.8757021E-02  (-0.4315078E-03)
 number of electron       8.0000111 magnetization 
 augmentation part        0.6976679 magnetization 

 Broyden mixing:
  rms(total) = 0.66113E-02    rms(broyden)= 0.66056E-02
  rms(prec ) = 0.12058E-01
  weight for this iteration     100.00

 eigenvalues of (default mixing * dielectric matrix)
  average eigenvalue GAMMA=   1.8349
  3.4481  2.3468  0.9966  0.9966  1.3865

 Free energy of the ion-electron system (eV)
  ---------------------------------------------------
  alpha Z        PSCENC =         0.87564028
  Ewald energy   TEWEN  =       -13.80331150
  -Hartree energ DENC   =      -382.93670474
  -exchange      EXHF   =         0.00000000
  -V(xc)+E(xc)   XCENC  =        34.21444895
  PAW double counting   =       332.74771167     -334.88573756
  entropy T*S    EENTRO =        -0.00000000
  eigenvalues    EBANDS =      -107.63510303
  atomic energy  EATOM  =       457.22046137
  Solvation  Ediel_sol  =         0.00000000
  ---------------------------------------------------
  free energy    TOTEN  =       -14.20259456 eV

  energy without entropy =      -14.20259456  energy(sigma->0) =      -14.20259456


--------------------------------------------------------------------------------------------------------




--------------------------------------- Iteration      1(  11)  ---------------------------------------


    POTLOK:  cpu time    0.0227: real time    0.0227
    SETDIJ:  cpu time    0.0007: real time    0.0007
     EDDAV:  cpu time    0.0119: real time    0.0119
       DOS:  cpu time    0.0001: real time    0.0001
    CHARGE:  cpu time    0.0039: real time    0.0039
    MIXING:  cpu time    0.0012: real time    0.0012
    --------------------------------------------
      LOOP:  cpu time    0.0405: real time    0.0405

 eigenvalue-minimisations  :    24
 total energy-change (2. order) :-0.2831386E-02  (-0.2238426E-03)
 number of electron       8.0000111 magnetization 
 augmentation part        0.6958064 magnetization 

 Broyden mixing:
  rms(total) = 0.59532E-02    rms(broyden)= 0.59493E-02
  rms(prec ) = 0.11410E-01
  weight for this iteration     100.00

 eigenvalues of (default mixing * dielectric matrix)
  average eigenvalue GAMMA=   2.0586
  4.1209  2.9126  2.3947  1.0501  0.9365  0.9365

 Free energy of the ion-electron system (eV)
  ---------------------------------------------------
  alpha Z        PSCENC =         0.87564028
  Ewald energy   TEWEN  =       -13.80331150
  -Hartree energ DENC   =      -383.36129040
  -exchange      EXHF   =         0.00000000
  -V(xc)+E(xc)   XCENC  =        34.23703882
  PAW double counting   =       334.34906065     -336.49118966
  entropy T*S    EENTRO =        -0.00000000
  eigenvalues    EBANDS =      -107.23183550
  atomic energy  EATOM  =       457.22046137
  Solvation  Ediel_sol  =         0.00000000
  ---------------------------------------------------
  free energy    TOTEN  =       -14.20542594 eV

  energy without entropy =      -14.20542594  energy(sigma->0) =      -14.20542594


--------------------------------------------------------------------------------------------------------




--------------------------------------- Iteration      1(  12)  ---------------------------------------


    POTLOK:  cpu time    0.0221: real time    0.0221
    SETDIJ:  cpu time    0.0007: real time    0.0007
     EDDAV:  cpu time    0.0120: real time    0.0120
       DOS:  cpu time    0.0001: real time    0.0001
    CHARGE:  cpu time    0.0049: real time    0.0049
    MIXING:  cpu time    0.0015: real time    0.0015
    --------------------------------------------
      LOOP:  cpu time    0.0413: real time    0.0413

 eigenvalue-minimisations  :    24
 total energy-change (2. order) :-0.1405485E-02  (-0.6625966E-04)
 number of electron       8.0000111 magnetization 
 augmentation part        0.6967365 magnetization 

 Broyden mixing:
  rms(total) = 0.16570E-02    rms(broyden)= 0.16549E-02
  rms(prec ) = 0.26794E-02
  weight for this iteration     100.00

 eigenvalues of (default mixing * dielectric matrix)
  average eigenvalue GAMMA=   2.0266
  4.2686  2.6749  2.6749  1.5677  1.1047  0.9476  0.9476

 Free energy of the ion-electron system (eV)
  ---------------------------------------------------
  alpha Z        PSCENC =         0.87564028
  Ewald energy   TEWEN  =       -13.80331150
  -Hartree energ DENC   =      -383.15201105
  -exchange      EXHF   =         0.00000000
  -V(xc)+E(xc)   XCENC  =        34.22278931
  PAW double counting   =       334.06537220     -336.20574340
  entropy T*S    EENTRO =        -0.00000000
  eigenvalues    EBANDS =      -107.43002865
  atomic energy  EATOM  =       457.22046137
  Solvation  Ediel_sol  =         0.00000000
  ---------------------------------------------------
  free energy    TOTEN  =       -14.20683143 eV

  energy without entropy =      -14.20683143  energy(sigma->0) =      -14.20683143


--------------------------------------------------------------------------------------------------------




--------------------------------------- Iteration      1(  13)  ---------------------------------------


    POTLOK:  cpu time    0.0220: real time    0.0220
    SETDIJ:  cpu time    0.0007: real time    0.0007
     EDDAV:  cpu time    0.0133: real time    0.0133
       DOS:  cpu time    0.0001: real time    0.0001
    CHARGE:  cpu time    0.0039: real time    0.0039
    MIXING:  cpu time    0.0014: real time    0.0014
    --------------------------------------------
      LOOP:  cpu time    0.0413: real time    0.0413

 eigenvalue-minimisations  :    24
 total energy-change (2. order) :-0.2823055E-03  (-0.6228291E-05)
 number of electron       8.0000111 magnetization 
 augmentation part        0.6969781 magnetization 

 Broyden mixing:
  rms(total) = 0.78585E-03    rms(broyden)= 0.78440E-03
  rms(prec ) = 0.11258E-02
  weight for this iteration     100.00

 eigenvalues of (default mixing * dielectric matrix)
  average eigenvalue GAMMA=   2.0787
  4.8174  3.0457  2.5847  2.2648  1.0972  0.9412  0.9412  0.9378

 Free energy of the ion-electron system (eV)
  ---------------------------------------------------
  alpha Z        PSCENC =         0.87564028
  Ewald energy   TEWEN  =       -13.80331150
  -Hartree energ DENC   =      -383.10732762
  -exchange      EXHF   =         0.00000000
  -V(xc)+E(xc)   XCENC  =        34.22020685
  PAW double counting   =       333.98397100     -336.12371041
  entropy T*S    EENTRO =        -0.00000000
  eigenvalues    EBANDS =      -107.47304370
  atomic energy  EATOM  =       457.22046137
  Solvation  Ediel_sol  =         0.00000000
  ---------------------------------------------------
  free energy    TOTEN  =       -14.20711373 eV

  energy without entropy =      -14.20711373  energy(sigma->0) =      -14.20711373


--------------------------------------------------------------------------------------------------------




--------------------------------------- Iteration      1(  14)  ---------------------------------------


    POTLOK:  cpu time    0.0234: real time    0.0234
    SETDIJ:  cpu time    0.0007: real time    0.0007
     EDDAV:  cpu time    0.0118: real time    0.0118
       DOS:  cpu time    0.0001: real time    0.0001
    --------------------------------------------
      LOOP:  cpu time    0.0359: real time    0.0359

 eigenvalue-minimisations  :    24
 total energy-change (2. order) :-0.8452756E-04  (-0.1001591E-05)
 number of electron       8.0000111 magnetization 
 augmentation part        0.6969781 magnetization 

 Free energy of the ion-electron system (eV)
  ---------------------------------------------------
  alpha Z        PSCENC =         0.87564028
  Ewald energy   TEWEN  =       -13.80331150
  -Hartree energ DENC   =      -383.09291560
  -exchange      EXHF   =         0.00000000
  -V(xc)+E(xc)   XCENC  =        34.21927105
  PAW double counting   =       333.92422281     -336.06407527
  entropy T*S    EENTRO =        -0.00000000
  eigenvalues    EBANDS =      -107.48649140
  atomic energy  EATOM  =       457.22046137
  Solvation  Ediel_sol  =         0.00000000
  ---------------------------------------------------
  free energy    TOTEN  =       -14.20719826 eV

  energy without entropy =      -14.20719826  energy(sigma->0) =      -14.20719826


--------------------------------------------------------------------------------------------------------




 average (electrostatic) potential at core
  the test charge radii are     0.7215  0.5201
  (the norm of the test charge is              1.0000)
       1 -80.2536       2 -44.5333       3 -44.5333



 E-fermi :  -6.3728     XC(G=0):  -1.7376     alpha+bet : -0.5081


 k-point     1 :       0.0000    0.0000    0.0000
  band No.  band energies     occupation 
      1     -25.1031      2.00000
      2     -12.8952      2.00000
      3      -8.8942      2.00000
      4      -6.8508      2.00000
      5      -1.2109      0.00000
      6       2.1843      0.00000
      7       2.2320      0.00000
      8       2.5951      0.00000


--------------------------------------------------------------------------------------------------------


 soft charge-density along one line, spin component           1
         0         1         2         3         4         5         6         7         8         9
 total charge-density along one line

 pseudopotential strength for first ion, spin component:           1
 13.753  -0.519  -0.000  -0.000  -0.125   0.000   0.000   0.006
 -0.519   0.118   0.000   0.000   0.015  -0.000  -0.000  -0.003
 -0.000   0.000 -10.524  -0.000   0.000   0.281   0.000  -0.000
 -0.000   0.000  -0.000 -10.277  -0.000   0.000   0.240   0.000
 -0.125   0.015   0.000  -0.000 -10.421  -0.000   0.000   0.264
  0.000  -0.000   0.281   0.000  -0.000   0.130  -0.000   0.000
  0.000  -0.000   0.000   0.240   0.000  -0.000   0.143  -0.000
  0.006  -0.003  -0.000   0.000   0.264   0.000  -0.000   0.136
 total augmentation occupancy for first ion, spin component:           1
  1.855   0.215  -0.000   0.000  -0.163   0.000   0.000   0.057
  0.215   0.049   0.000   0.000   0.175   0.000   0.000   0.033
 -0.000   0.000   1.428   0.000  -0.000   0.276   0.000   0.000
  0.000   0.000   0.000   1.813   0.000   0.000   0.113   0.000
 -0.163   0.175  -0.000   0.000   1.587   0.000   0.000   0.211
  0.000   0.000   0.276   0.000   0.000   0.053   0.000   0.000
  0.000   0.000   0.000   0.113   0.000   0.000   0.007   0.000
  0.057   0.033   0.000   0.000   0.211   0.000   0.000   0.031


------------------------ aborting loop because EDIFF is reached ----------------------------------------


    CHARGE:  cpu time    0.0039: real time    0.0040
    FORLOC:  cpu time    0.0023: real time    0.0023
    FORNL :  cpu time    0.0017: real time    0.0017
    FORHAR:  cpu time    0.0097: real time    0.0097
    MIXING:  cpu time    0.0014: real time    0.0014
    OFIELD:  cpu time    0.0000: real time    0.0000

 VOLUME and BASIS-vectors are now :
 -----------------------------------------------------------------------------
  energy-cutoff  :      400.00
  volume of cell :      256.07
      direct lattice vectors                 reciprocal lattice vectors
     6.350160000  0.000000000  0.000000000     0.157476347  0.000000000  0.000000000
     0.000000000  6.350160000  0.000000000     0.000000000  0.157476347  0.000000000
     0.000000000  0.000000000  6.350160000     0.000000000  0.000000000  0.157476347

  length of vectors
     6.350160000  6.350160000  6.350160000     0.157476347  0.157476347  0.157476347


 FORCES acting on ions
    electron-ion (+dipol)            ewald-force                    non-local-force                 convergence-correction
 -----------------------------------------------------------------------------------------------
   0.634E+02 0.743E-05 -.103E-15   -.114E+03 -.142E-13 0.732E-16   0.495E+02 0.349E-05 0.153E-22   -.510E-03 -.988E-05 -.995E-15
   -.513E+02 0.720E+02 -.101E-06   0.570E+02 -.799E+02 0.105E-16   -.515E+01 0.717E+01 0.102E-23   -.220E-03 0.176E-03 0.194E-14
   -.513E+02 -.720E+02 0.177E-06   0.570E+02 0.799E+02 0.112E-16   -.515E+01 -.717E+01 -.339E-25   -.220E-03 -.176E-03 0.298E-15
 -----------------------------------------------------------------------------------------------
   -.392E+02 0.743E-05 0.761E-07   -.711E-14 0.000E+00 0.949E-16   0.392E+02 0.337E-05 0.163E-22   -.950E-03 -.101E-04 0.124E-14


 POSITION                                       TOTAL-FORCE (eV/Angst)
 -----------------------------------------------------------------------------------
      0.00000      0.00000      0.00000        -1.090097      0.000001     -0.000000
      0.58210      5.59343      0.00000         0.545420     -0.725079     -0.000000
      0.58210      0.75673      0.00000         0.545419      0.725079     -0.000000
 -----------------------------------------------------------------------------------
    total drift:                                0.000742      0.000001      0.000000


--------------------------------------------------------------------------------------------------------



  FREE ENERGIE OF THE ION-ELECTRON SYSTEM (eV)
  ---------------------------------------------------
  free  energy   TOTEN  =       -14.20719826 eV

  energy  without entropy=      -14.20719826  energy(sigma->0) =      -14.20719826



--------------------------------------------------------------------------------------------------------


    POTLOK:  cpu time    0.0226: real time    0.0226


--------------------------------------------------------------------------------------------------------


           RANDOM_SEED =         843215511                0                0
           RANDOM_SEED =         843215511               18                0
   IONSTEP:  cpu time    0.0006: real time    0.0082

  ENERGY OF THE ELECTRON-ION-THERMOSTAT SYSTEM (eV)
  ---------------------------------------------------
% ion-electron   TOTEN  =       -14.207198  see above
  kinetic energy EKIN   =         0.556726
  kin. lattice  EKIN_LAT=         0.000000  (temperature 2153.50 K)
  nose potential ES     =         0.000000
  nose kinetic   EPS    =         0.000000
  ---------------------------------------------------
  total energy   ETOTAL =       -13.650472 eV

  maximum distance moved by ions :      0.97E-02

    WAVPRE:  cpu time    0.1820: real time    0.1820
    FEWALD:  cpu time    0.0001: real time    0.0001
    ORTHCH:  cpu time    0.0009: real time    0.0009
     LOOP+:  cpu time    0.6735: real time    0.6811


--------------------------------------- Iteration      2(   1)  ---------------------------------------


    POTLOK:  cpu time    0.0233: real time    0.0233
    SETDIJ:  cpu time    0.0007: real time    0.0007
     EDDAV:  cpu time    0.0098: real time    0.0098
       DOS:  cpu time    0.0001: real time    0.0001
    CHARGE:  cpu time    0.0040: real time    0.0040
    MIXING:  cpu time    0.0015: real time    0.0015
    --------------------------------------------
      LOOP:  cpu time    0.0394: real time    0.0394

 eigenvalue-minimisations  :    16
 total energy-change (2. order) : 0.3471817E-01  (-0.5039112E+00)
 number of electron       8.0000092 magnetization 
 augmentation part        0.6658026 magnetization 

 Broyden mixing:
  rms(total) = 0.10003E+00    rms(broyden)= 0.99781E-01
  rms(prec ) = 0.15144E+00
  weight for this iteration     100.00

 Free energy of the ion-electron system (eV)
  ---------------------------------------------------
  alpha Z        PSCENC =         0.87564028
  Ewald energy   TEWEN  =       -23.33037688
  -Hartree energ DENC   =      -378.20988243
  -exchange      EXHF   =         0.00000000
  -V(xc)+E(xc)   XCENC  =        33.98030970
  PAW double counting   =       333.90452475     -336.04419062
  entropy T*S    EENTRO =        -0.00000000
  eigenvalues    EBANDS =      -102.56888174
  atomic energy  EATOM  =       457.22046137
  Solvation  Ediel_sol  =         0.00000000
  ---------------------------------------------------
  free energy    TOTEN  =       -14.17239557 eV

  energy without entropy =      -14.17239557  energy(sigma->0) =      -14.17239557


--------------------------------------------------------------------------------------------------------




--------------------------------------- Iteration      2(   2)  ---------------------------------------


    POTLOK:  cpu time    0.0221: real time    0.0221
    SETDIJ:  cpu time    0.0009: real time    0.0009
     EDDAV:  cpu time    0.0121: real time    0.0121
       DOS:  cpu time    0.0001: real time    0.0001
    CHARGE:  cpu time    0.0039: real time    0.0039
    MIXING:  cpu time    0.0010: real time    0.0010
    --------------------------------------------
      LOOP:  cpu time    0.0401: real time    0.0401

 eigenvalue-minimisations  :    24
 total energy-change (2. order) : 0.1140587E-01  (-0.1686966E-01)
 number of electron       8.0000093 magnetization 
 augmentation part        0.6748682 magnetization 

 Broyden mixing:
  rms(total) = 0.40470E-01    rms(broyden)= 0.40385E-01
  rms(prec ) = 0.54327E-01
  weight for this iteration     100.00

 eigenvalues of (default mixing * dielectric matrix)
  average eigenvalue GAMMA=   1.1060
  1.1060

 Free energy of the ion-electron system (eV)
  ---------------------------------------------------
  alpha Z        PSCENC =         0.87564028
  Ewald energy   TEWEN  =       -23.33037688
  -Hartree energ DENC   =      -375.93855148
  -exchange      EXHF   =         0.00000000
  -V(xc)+E(xc)   XCENC  =        33.85230656
  PAW double counting   =       326.22008790     -328.32555990
  entropy T*S    EENTRO =        -0.00000000
  eigenvalues    EBANDS =      -104.73499755
  atomic energy  EATOM  =       457.22046137
  Solvation  Ediel_sol  =         0.00000000
  ---------------------------------------------------
  free energy    TOTEN  =       -14.16098970 eV

  energy without entropy =      -14.16098970  energy(sigma->0) =      -14.16098970


--------------------------------------------------------------------------------------------------------




--------------------------------------- Iteration      2(   3)  ---------------------------------------


    POTLOK:  cpu time    0.0222: real time    0.0223
    SETDIJ:  cpu time    0.0007: real time    0.0007
     EDDAV:  cpu time    0.0120: real time    0.0120
       DOS:  cpu time    0.0001: real time    0.0001
    CHARGE:  cpu time    0.0040: real time    0.0040
    MIXING:  cpu time    0.0012: real time    0.0012
    --------------------------------------------
      LOOP:  cpu time    0.0402: real time    0.0402

 eigenvalue-minimisations  :    24
 total energy-change (2. order) : 0.1578841E-02  (-0.3252363E-03)
 number of electron       8.0000093 magnetization 
 augmentation part        0.6754848 magnetization 

 Broyden mixing:
  rms(total) = 0.20969E-01    rms(broyden)= 0.20961E-01
  rms(prec ) = 0.27860E-01
  weight for this iteration     100.00

 eigenvalues of (default mixing * dielectric matrix)
  average eigenvalue GAMMA=   1.5726
  1.0703  2.0750

 Free energy of the ion-electron system (eV)
  ---------------------------------------------------
  alpha Z        PSCENC =         0.87564028
  Ewald energy   TEWEN  =       -23.33037688
  -Hartree energ DENC   =      -375.74041581
  -exchange      EXHF   =         0.00000000
  -V(xc)+E(xc)   XCENC  =        33.84119383
  PAW double counting   =       323.51336742     -325.60801072
  entropy T*S    EENTRO =        -0.00000000
  eigenvalues    EBANDS =      -104.93127035
  atomic energy  EATOM  =       457.22046137
  Solvation  Ediel_sol  =         0.00000000
  ---------------------------------------------------
  free energy    TOTEN  =       -14.15941086 eV

  energy without entropy =      -14.15941086  energy(sigma->0) =      -14.15941086


--------------------------------------------------------------------------------------------------------




--------------------------------------- Iteration      2(   4)  ---------------------------------------


    POTLOK:  cpu time    0.0228: real time    0.0228
    SETDIJ:  cpu time    0.0007: real time    0.0007
     EDDAV:  cpu time    0.0132: real time    0.0132
       DOS:  cpu time    0.0001: real time    0.0001
    CHARGE:  cpu time    0.0041: real time    0.0041
    MIXING:  cpu time    0.0011: real time    0.0011
    --------------------------------------------
      LOOP:  cpu time    0.0419: real time    0.0419

 eigenvalue-minimisations  :    24
 total energy-change (2. order) : 0.8459675E-04  (-0.2059361E-03)
 number of electron       8.0000093 magnetization 
 augmentation part        0.6748145 magnetization 

 Broyden mixing:
  rms(total) = 0.37880E-02    rms(broyden)= 0.37828E-02
  rms(prec ) = 0.60963E-02
  weight for this iteration     100.00

 eigenvalues of (default mixing * dielectric matrix)
  average eigenvalue GAMMA=   1.5068
  2.3137  1.1034  1.1034

 Free energy of the ion-electron system (eV)
  ---------------------------------------------------
  alpha Z        PSCENC =         0.87564028
  Ewald energy   TEWEN  =       -23.33037688
  -Hartree energ DENC   =      -375.73467076
  -exchange      EXHF   =         0.00000000
  -V(xc)+E(xc)   XCENC  =        33.84030979
  PAW double counting   =       321.09264293     -323.17773158
  entropy T*S    EENTRO =        -0.00000000
  eigenvalues    EBANDS =      -104.94560140
  atomic energy  EATOM  =       457.22046137
  Solvation  Ediel_sol  =         0.00000000
  ---------------------------------------------------
  free energy    TOTEN  =       -14.15932626 eV

  energy without entropy =      -14.15932626  energy(sigma->0) =      -14.15932626


--------------------------------------------------------------------------------------------------------




--------------------------------------- Iteration      2(   5)  ---------------------------------------


    POTLOK:  cpu time    0.0224: real time    0.0224
    SETDIJ:  cpu time    0.0007: real time    0.0007
     EDDAV:  cpu time    0.0090: real time    0.0090
       DOS:  cpu time    0.0001: real time    0.0001
    CHARGE:  cpu time    0.0039: real time    0.0039
    MIXING:  cpu time    0.0011: real time    0.0011
    --------------------------------------------
      LOOP:  cpu time    0.0373: real time    0.0373

 eigenvalue-minimisations  :    16
 total energy-change (2. order) :-0.1308013E-03  (-0.2540973E-04)
 number of electron       8.0000093 magnetization 
 augmentation part        0.6753440 magnetization 

 Broyden mixing:
  rms(total) = 0.17383E-02    rms(broyden)= 0.17341E-02
  rms(prec ) = 0.31579E-02
  weight for this iteration     100.00

 eigenvalues of (default mixing * dielectric matrix)
  average eigenvalue GAMMA=   1.5212
  2.2843  1.9133  1.0740  0.8130

 Free energy of the ion-electron system (eV)
  ---------------------------------------------------
  alpha Z        PSCENC =         0.87564028
  Ewald energy   TEWEN  =       -23.33037688
  -Hartree energ DENC   =      -375.68313865
  -exchange      EXHF   =         0.00000000
  -V(xc)+E(xc)   XCENC  =        33.83733655
  PAW double counting   =       320.51306419     -322.59451156
  entropy T*S    EENTRO =        -0.00000000
  eigenvalues    EBANDS =      -104.99793236
  atomic energy  EATOM  =       457.22046137
  Solvation  Ediel_sol  =         0.00000000
  ---------------------------------------------------
  free energy    TOTEN  =       -14.15945706 eV

  energy without entropy =      -14.15945706  energy(sigma->0) =      -14.15945706


--------------------------------------------------------------------------------------------------------




--------------------------------------- Iteration      2(   6)  ---------------------------------------


    POTLOK:  cpu time    0.0226: real time    0.0227
    SETDIJ:  cpu time    0.0007: real time    0.0007
     EDDAV:  cpu time    0.0088: real time    0.0088
       DOS:  cpu time    0.0001: real time    0.0001
    CHARGE:  cpu time    0.0039: real time    0.0039
    MIXING:  cpu time    0.0012: real time    0.0012
    --------------------------------------------
      LOOP:  cpu time    0.0373: real time    0.0373

 eigenvalue-minimisations  :    16
 total energy-change (2. order) :-0.1014065E-03  (-0.2068089E-05)
 number of electron       8.0000093 magnetization 
 augmentation part        0.6754033 magnetization 

 Broyden mixing:
  rms(total) = 0.69851E-03    rms(broyden)= 0.69734E-03
  rms(prec ) = 0.16450E-02
  weight for this iteration     100.00

 eigenvalues of (default mixing * dielectric matrix)
  average eigenvalue GAMMA=   1.5752
  2.6348  1.9355  0.9503  1.1776  1.1776

 Free energy of the ion-electron system (eV)
  ---------------------------------------------------
  alpha Z        PSCENC =         0.87564028
  Ewald energy   TEWEN  =       -23.33037688
  -Hartree energ DENC   =      -375.68920625
  -exchange      EXHF   =         0.00000000
  -V(xc)+E(xc)   XCENC  =        33.83754996
  PAW double counting   =       320.39660125     -322.47807158
  entropy T*S    EENTRO =        -0.00000000
  eigenvalues    EBANDS =      -104.99215661
  atomic energy  EATOM  =       457.22046137
  Solvation  Ediel_sol  =         0.00000000
  ---------------------------------------------------
  free energy    TOTEN  =       -14.15955847 eV

  energy without entropy =      -14.15955847  energy(sigma->0) =      -14.15955847


--------------------------------------------------------------------------------------------------------




--------------------------------------- Iteration      2(   7)  ---------------------------------------


    POTLOK:  cpu time    0.0228: real time    0.0228
    SETDIJ:  cpu time    0.0007: real time    0.0007
     EDDAV:  cpu time    0.0115: real time    0.0115
       DOS:  cpu time    0.0001: real time    0.0001
    --------------------------------------------
      LOOP:  cpu time    0.0351: real time    0.0351

 eigenvalue-minimisations  :    24
 total energy-change (2. order) :-0.8450633E-04  (-0.2343475E-05)
 number of electron       8.0000093 magnetization 
 augmentation part        0.6754033 magnetization 

 Free energy of the ion-electron system (eV)
  ---------------------------------------------------
  alpha Z        PSCENC =         0.87564028
  Ewald energy   TEWEN  =       -23.33037688
  -Hartree energ DENC   =      -375.71177881
  -exchange      EXHF   =         0.00000000
  -V(xc)+E(xc)   XCENC  =        33.83870353
  PAW double counting   =       320.37635173     -322.45869074
  entropy T*S    EENTRO =        -0.00000000
  eigenvalues    EBANDS =      -104.96995344
  atomic energy  EATOM  =       457.22046137
  Solvation  Ediel_sol  =         0.00000000
  ---------------------------------------------------
  free energy    TOTEN  =       -14.15964297 eV

  energy without entropy =      -14.15964297  energy(sigma->0) =      -14.15964297


--------------------------------------------------------------------------------------------------------




 average (electrostatic) potential at core
  the test charge radii are     0.7215  0.5201
  (the norm of the test charge is              1.0000)
       1 -80.1930       2 -43.7650       3 -44.0322



 E-fermi :  -6.2340     XC(G=0):  -1.7798     alpha+bet : -0.5081


 k-point     1 :       0.0000    0.0000    0.0000
  band No.  band energies     occupation 
      1     -24.5208      2.00000
      2     -12.4819      2.00000
      3      -8.7526      2.00000
      4      -6.7297      2.00000
      5      -1.3575      0.00000
      6       1.9299      0.00000
      7       2.0488      0.00000
      8       2.5262      0.00000


--------------------------------------------------------------------------------------------------------


 soft charge-density along one line, spin component           1
         0         1         2         3         4         5         6         7         8         9
 total charge-density along one line

 pseudopotential strength for first ion, spin component:           1
 13.746  -0.520  -0.001  -0.000  -0.113   0.000   0.000   0.006
 -0.520   0.118  -0.000   0.000   0.014   0.000  -0.000  -0.002
 -0.001  -0.000 -10.513  -0.000  -0.006   0.283   0.000   0.001
 -0.000   0.000  -0.000 -10.283   0.000   0.000   0.244  -0.000
 -0.113   0.014  -0.006   0.000 -10.416   0.001  -0.000   0.267
  0.000   0.000   0.283   0.000   0.001   0.129  -0.000  -0.000
  0.000  -0.000   0.000   0.244  -0.000  -0.000   0.141   0.000
  0.006  -0.002   0.001  -0.000   0.267  -0.000   0.000   0.134
 total augmentation occupancy for first ion, spin component:           1
  1.859   0.192   0.009   0.000  -0.177   0.003   0.000   0.045
  0.192   0.041  -0.000   0.000   0.164   0.001   0.000   0.029
  0.009  -0.000   1.374   0.000   0.007   0.256   0.000   0.005
  0.000   0.000   0.000   1.812   0.000   0.000   0.108   0.000
 -0.177   0.164   0.007   0.000   1.546   0.005   0.000   0.197
  0.003   0.001   0.256   0.000   0.005   0.048   0.000   0.002
  0.000   0.000   0.000   0.108   0.000   0.000   0.006   0.000
  0.045   0.029   0.005   0.000   0.197   0.002   0.000   0.027


------------------------ aborting loop because EDIFF is reached ----------------------------------------


    CHARGE:  cpu time    0.0042: real time    0.0042
    FORLOC:  cpu time    0.0025: real time    0.0025
    FORNL :  cpu time    0.0018: real time    0.0018
    FORHAR:  cpu time    0.0084: real time    0.0084
    MIXING:  cpu time    0.0014: real time    0.0014
    OFIELD:  cpu time    0.0000: real time    0.0000

 VOLUME and BASIS-vectors are now :
 -----------------------------------------------------------------------------
  energy-cutoff  :      400.00
  volume of cell :      256.07
      direct lattice vectors                 reciprocal lattice vectors
     6.350160000  0.000000000  0.000000000     0.157476347  0.000000000  0.000000000
     0.000000000  6.350160000  0.000000000     0.000000000  0.157476347  0.000000000
     0.000000000  0.000000000  6.350160000     0.000000000  0.000000000  0.157476347

  length of vectors
     6.350160000  6.350160000  6.350160000     0.157476347  0.157476347  0.157476347


 FORCES acting on ions
    electron-ion (+dipol)            ewald-force                    non-local-force                 convergence-correction
 -----------------------------------------------------------------------------------------------
   0.553E+02 0.469E+00 -.466E-06   -.101E+03 -.743E+00 0.660E-16   0.471E+02 -.636E+00 -.126E-24   0.255E-02 -.102E-01 0.371E-13
   -.442E+02 0.678E+02 0.416E-06   0.470E+02 -.719E+02 0.131E-16   -.378E+01 0.587E+01 -.360E-24   -.164E-02 0.127E-02 0.395E-14
   -.499E+02 -.673E+02 -.478E-07   0.541E+02 0.726E+02 0.158E-16   -.458E+01 -.620E+01 0.410E-24   -.111E-02 -.178E-02 0.405E-14
 -----------------------------------------------------------------------------------------------
   -.387E+02 0.978E+00 -.971E-07   -.711E-14 0.000E+00 0.949E-16   0.387E+02 -.970E+00 -.764E-25   -.194E-03 -.107E-01 0.451E-13


 POSITION                                       TOTAL-FORCE (eV/Angst)
 -----------------------------------------------------------------------------------
      6.33825      0.01530      0.00000         1.328775     -0.921049      0.000000
      0.57538      5.53196      0.00000        -0.956918      1.780462      0.000000
      0.60771      0.78976      0.00000        -0.369138     -0.861807      0.000000
 -----------------------------------------------------------------------------------
    total drift:                                0.002719     -0.002394     -0.000000


--------------------------------------------------------------------------------------------------------



  FREE ENERGIE OF THE ION-ELECTRON SYSTEM (eV)
  ---------------------------------------------------
  free  energy   TOTEN  =       -14.15964297 eV

  energy  without entropy=      -14.15964297  energy(sigma->0) =      -14.15964297

 d Force =-0.3952818E-01[-0.171E+00, 0.918E-01]  d Energy =-0.4755529E-01 0.803E-02
 d Force = 0.9534322E+01[ 0.908E+01, 0.999E+01]  d Ewald  = 0.9527065E+01 0.726E-02


--------------------------------------------------------------------------------------------------------


    POTLOK:  cpu time    0.0243: real time    0.0245


--------------------------------------------------------------------------------------------------------


           RANDOM_SEED =         843215511               18                0
   IONSTEP:  cpu time    0.0000: real time    0.0000

  ENERGY OF THE ELECTRON-ION-THERMOSTAT SYSTEM (eV)
  ---------------------------------------------------
% ion-electron   TOTEN  =       -14.159643  see above
  kinetic energy EKIN   =         0.521308
  kin. lattice  EKIN_LAT=         0.000000  (temperature 2016.50 K)
  nose potential ES     =         0.000000
  nose kinetic   EPS    =         0.000000
  ---------------------------------------------------
  total energy   ETOTAL =       -13.638335 eV

  maximum distance moved by ions :      0.74E-02

    WAVPRE:  cpu time    0.0071: real time    0.0071
    FEWALD:  cpu time    0.0001: real time    0.0001
    ORTHCH:  cpu time    0.0009: real time    0.0009
 Prediction of Wavefunctions ALPHA= 0.768 BETA= 0.000
     LOOP+:  cpu time    0.3228: real time    0.3230


--------------------------------------- Iteration      3(   1)  ---------------------------------------


    POTLOK:  cpu time    0.0247: real time    0.0247
    SETDIJ:  cpu time    0.0007: real time    0.0007
     EDDAV:  cpu time    0.0119: real time    0.0119
       DOS:  cpu time    0.0001: real time    0.0001
    CHARGE:  cpu time    0.0039: real time    0.0039
    MIXING:  cpu time    0.0011: real time    0.0011
    --------------------------------------------
      LOOP:  cpu time    0.0424: real time    0.0425

 eigenvalue-minimisations  :    24
 total energy-change (2. order) : 0.1748359E+00  (-0.3322071E-01)
 number of electron       8.0000031 magnetization 
 augmentation part        0.6638647 magnetization 

 Broyden mixing:
  rms(total) = 0.19503E-01    rms(broyden)= 0.19304E-01
  rms(prec ) = 0.25700E-01
  weight for this iteration     100.00

 Free energy of the ion-electron system (eV)
  ---------------------------------------------------
  alpha Z        PSCENC =         0.87564028
  Ewald energy   TEWEN  =       -29.68189100
  -Hartree energ DENC   =      -370.41432832
  -exchange      EXHF   =         0.00000000
  -V(xc)+E(xc)   XCENC  =        33.56988219
  PAW double counting   =       310.50991260     -312.55043739
  entropy T*S    EENTRO =        -0.00000000
  eigenvalues    EBANDS =      -103.51396226
  atomic energy  EATOM  =       457.22046137
  Solvation  Ediel_sol  =         0.00000000
  ---------------------------------------------------
  free energy    TOTEN  =       -13.98472252 eV

  energy without entropy =      -13.98472252  energy(sigma->0) =      -13.98472252


--------------------------------------------------------------------------------------------------------




--------------------------------------- Iteration      3(   2)  ---------------------------------------


    POTLOK:  cpu time    0.0225: real time    0.0225
    SETDIJ:  cpu time    0.0007: real time    0.0007
     EDDAV:  cpu time    0.0086: real time    0.0086
       DOS:  cpu time    0.0001: real time    0.0001
    CHARGE:  cpu time    0.0039: real time    0.0039
    MIXING:  cpu time    0.0010: real time    0.0010
    --------------------------------------------
      LOOP:  cpu time    0.0368: real time    0.0368

 eigenvalue-minimisations  :    16
 total energy-change (2. order) :-0.9769439E-03  (-0.1530325E-02)
 number of electron       8.0000031 magnetization 
 augmentation part        0.6608661 magnetization 

 Broyden mixing:
  rms(total) = 0.82839E-02    rms(broyden)= 0.82414E-02
  rms(prec ) = 0.10413E-01
  weight for this iteration     100.00

 eigenvalues of (default mixing * dielectric matrix)
  average eigenvalue GAMMA=   1.0580
  1.0580

 Free energy of the ion-electron system (eV)
  ---------------------------------------------------
  alpha Z        PSCENC =         0.87564028
  Ewald energy   TEWEN  =       -29.68189100
  -Hartree energ DENC   =      -370.64977539
  -exchange      EXHF   =         0.00000000
  -V(xc)+E(xc)   XCENC  =        33.58187458
  PAW double counting   =       311.49349842     -313.54278544
  entropy T*S    EENTRO =        -0.00000000
  eigenvalues    EBANDS =      -103.28272228
  atomic energy  EATOM  =       457.22046137
  Solvation  Ediel_sol  =         0.00000000
  ---------------------------------------------------
  free energy    TOTEN  =       -13.98569947 eV

  energy without entropy =      -13.98569947  energy(sigma->0) =      -13.98569947


--------------------------------------------------------------------------------------------------------




--------------------------------------- Iteration      3(   3)  ---------------------------------------


    POTLOK:  cpu time    0.0242: real time    0.0242
    SETDIJ:  cpu time    0.0007: real time    0.0007
     EDDAV:  cpu time    0.0149: real time    0.0149
       DOS:  cpu time    0.0001: real time    0.0001
    --------------------------------------------
      LOOP:  cpu time    0.0398: real time    0.0398

 eigenvalue-minimisations  :    32
 total energy-change (2. order) :-0.1667331E-04  (-0.1541910E-04)
 number of electron       8.0000031 magnetization 
 augmentation part        0.6608661 magnetization 

 Free energy of the ion-electron system (eV)
  ---------------------------------------------------
  alpha Z        PSCENC =         0.87564028
  Ewald energy   TEWEN  =       -29.68189100
  -Hartree energ DENC   =      -370.61898553
  -exchange      EXHF   =         0.00000000
  -V(xc)+E(xc)   XCENC  =        33.57979797
  PAW double counting   =       311.75639932     -313.80427283
  entropy T*S    EENTRO =        -0.00000000
  eigenvalues    EBANDS =      -103.31286572
  atomic energy  EATOM  =       457.22046137
  Solvation  Ediel_sol  =         0.00000000
  ---------------------------------------------------
  free energy    TOTEN  =       -13.98571614 eV

  energy without entropy =      -13.98571614  energy(sigma->0) =      -13.98571614


--------------------------------------------------------------------------------------------------------




 average (electrostatic) potential at core
  the test charge radii are     0.7215  0.5201
  (the norm of the test charge is              1.0000)
       1 -80.1712       2 -43.4079       3 -43.7290



 E-fermi :  -6.1379     XC(G=0):  -1.8243     alpha+bet : -0.5081


 k-point     1 :       0.0000    0.0000    0.0000
  band No.  band energies     occupation 
      1     -24.1492      2.00000
      2     -12.2006      2.00000
      3      -8.6563      2.00000
      4      -6.6503      2.00000
      5      -1.4831      0.00000
      6       1.6477      0.00000
      7       1.9051      0.00000
      8       2.4902      0.00000


--------------------------------------------------------------------------------------------------------


 soft charge-density along one line, spin component           1
         0         1         2         3         4         5         6         7         8         9
 total charge-density along one line

 pseudopotential strength for first ion, spin component:           1
 13.745  -0.520   0.000   0.000  -0.106   0.000  -0.000   0.005
 -0.520   0.118  -0.000  -0.000   0.014   0.000   0.000  -0.002
  0.000  -0.000 -10.509  -0.000  -0.008   0.286   0.000   0.001
  0.000  -0.000  -0.000 -10.289  -0.000   0.000   0.248   0.000
 -0.106   0.014  -0.008  -0.000 -10.418   0.001   0.000   0.270
  0.000   0.000   0.286   0.000   0.001   0.128  -0.000  -0.000
 -0.000   0.000   0.000   0.248   0.000  -0.000   0.140  -0.000
  0.005  -0.002   0.001   0.000   0.270  -0.000  -0.000   0.133
 total augmentation occupancy for first ion, spin component:           1
  1.865   0.177   0.015   0.000  -0.184   0.004   0.000   0.037
  0.177   0.037  -0.002   0.000   0.156   0.001   0.000   0.026
  0.015  -0.002   1.338   0.000   0.007   0.241   0.000   0.009
  0.000   0.000   0.000   1.811   0.000   0.000   0.104   0.000
 -0.184   0.156   0.007   0.000   1.518   0.009   0.000   0.187
  0.004   0.001   0.241   0.000   0.009   0.043   0.000   0.003
  0.000   0.000   0.000   0.104   0.000   0.000   0.006   0.000
  0.037   0.026   0.009   0.000   0.187   0.003   0.000   0.025


------------------------ aborting loop because EDIFF is reached ----------------------------------------


    CHARGE:  cpu time    0.0039: real time    0.0039
    FORLOC:  cpu time    0.0023: real time    0.0023
    FORNL :  cpu time    0.0017: real time    0.0017
    FORHAR:  cpu time    0.0090: real time    0.0090
    MIXING:  cpu time    0.0011: real time    0.0011
    OFIELD:  cpu time    0.0000: real time    0.0000

 VOLUME and BASIS-vectors are now :
 -----------------------------------------------------------------------------
  energy-cutoff  :      400.00
  volume of cell :      256.07
      direct lattice vectors                 reciprocal lattice vectors
     6.350160000  0.000000000  0.000000000     0.157476347  0.000000000  0.000000000
     0.000000000  6.350160000  0.000000000     0.000000000  0.157476347  0.000000000
     0.000000000  0.000000000  6.350160000     0.000000000  0.000000000  0.157476347

  length of vectors
     6.350160000  6.350160000  6.350160000     0.157476347  0.157476347  0.157476347


 FORCES acting on ions
    electron-ion (+dipol)            ewald-force                    non-local-force                 convergence-correction
 -----------------------------------------------------------------------------------------------
   0.501E+02 0.326E+00 -.473E-05   -.930E+02 -.250E+00 0.904E-16   0.455E+02 -.134E+01 -.423E-21   -.114E+00 0.134E-01 -.748E-11
   -.391E+02 0.650E+02 0.239E-06   0.406E+02 -.670E+02 -.942E-17   -.299E+01 0.512E+01 -.122E-22   0.173E-02 -.887E-02 -.462E-12
   -.491E+02 -.636E+02 -.163E-06   0.524E+02 0.673E+02 0.140E-16   -.421E+01 -.553E+01 0.271E-23   -.181E-02 0.297E-02 -.475E-12
 -----------------------------------------------------------------------------------------------
   -.381E+02 0.174E+01 -.465E-05   -.711E-14 -.142E-13 0.949E-16   0.383E+02 -.175E+01 -.433E-21   -.114E+00 0.752E-02 -.842E-11


 POSITION                                       TOTAL-FORCE (eV/Angst)
 -----------------------------------------------------------------------------------
      6.32714      0.03005      0.00000         2.488483     -1.247627     -0.000000
      0.55943      5.48766      0.00000        -1.522462      3.045418     -0.000000
      0.62977      0.81448      0.00000        -0.966924     -1.798109     -0.000000
 -----------------------------------------------------------------------------------
    total drift:                               -0.000903     -0.000318     -0.000005


--------------------------------------------------------------------------------------------------------



  FREE ENERGIE OF THE ION-ELECTRON SYSTEM (eV)
  ---------------------------------------------------
  free  energy   TOTEN  =       -13.98571614 eV

  energy  without entropy=      -13.98571614  energy(sigma->0) =      -13.98571614

 d Force =-0.1719168E+00[-0.222E+00,-0.121E+00]  d Energy =-0.1739268E+00 0.201E-02
 d Force = 0.6352123E+01[ 0.617E+01, 0.653E+01]  d Ewald  = 0.6351514E+01 0.609E-03


--------------------------------------------------------------------------------------------------------


    POTLOK:  cpu time    0.0238: real time    0.0238


--------------------------------------------------------------------------------------------------------


           RANDOM_SEED =         843215511               18                0
   IONSTEP:  cpu time    0.0000: real time    0.0000

  ENERGY OF THE ELECTRON-ION-THERMOSTAT SYSTEM (eV)
  ---------------------------------------------------
% ion-electron   TOTEN  =       -13.985716  see above
  kinetic energy EKIN   =         0.362799
  kin. lattice  EKIN_LAT=         0.000000  (temperature 1403.36 K)
  nose potential ES     =         0.000000
  nose kinetic   EPS    =         0.000000
  ---------------------------------------------------
  total energy   ETOTAL =       -13.622918 eV

  maximum distance moved by ions :      0.54E-02

[...]

 eigenvalue-minimisations  :    24
 total energy-change (2. order) :-0.6435357E-04  (-0.3069239E-05)
 number of electron       8.0000112 magnetization 
 augmentation part        0.7046709 magnetization 

 Free energy of the ion-electron system (eV)
  ---------------------------------------------------
  alpha Z        PSCENC =         0.87564028
  Ewald energy   TEWEN  =        -9.20112288
  -Hartree energ DENC   =      -386.46814202
  -exchange      EXHF   =         0.00000000
  -V(xc)+E(xc)   XCENC  =        34.39532436
  PAW double counting   =       340.46861727     -342.62404726
  entropy T*S    EENTRO =        -0.00000000
  eigenvalues    EBANDS =      -108.78851106
  atomic energy  EATOM  =       457.22046137
  Solvation  Ediel_sol  =         0.00000000
  ---------------------------------------------------
  free energy    TOTEN  =       -14.12177994 eV

  energy without entropy =      -14.12177994  energy(sigma->0) =      -14.12177994


--------------------------------------------------------------------------------------------------------




 average (electrostatic) potential at core
  the test charge radii are     0.7215  0.5201
  (the norm of the test charge is              1.0000)
       1 -80.3138       2 -44.7879       3 -45.0309



 E-fermi :  -6.4368     XC(G=0):  -1.6986     alpha+bet : -0.5081


 k-point     1 :       0.0000    0.0000    0.0000
  band No.  band energies     occupation 
      1     -25.4496      2.00000
      2     -12.9004      2.00000
      3      -9.1236      2.00000
      4      -6.9206      2.00000
      5      -1.1620      0.00000
      6       2.2554      0.00000
      7       2.3019      0.00000
      8       2.6663      0.00000


--------------------------------------------------------------------------------------------------------


 soft charge-density along one line, spin component           1
         0         1         2         3         4         5         6         7         8         9
 total charge-density along one line

 pseudopotential strength for first ion, spin component:           1
 13.759  -0.519   0.025   0.000   0.131  -0.001  -0.000  -0.007
 -0.519   0.118  -0.003  -0.000  -0.016   0.001   0.000   0.003
  0.025  -0.003 -10.527   0.000   0.012   0.280  -0.000  -0.002
  0.000  -0.000   0.000 -10.281   0.000  -0.000   0.239  -0.000
  0.131  -0.016   0.012   0.000 -10.443  -0.002  -0.000   0.266
 -0.001   0.001   0.280  -0.000  -0.002   0.131   0.000   0.001
 -0.000   0.000  -0.000   0.239  -0.000   0.000   0.143   0.000
 -0.007   0.003  -0.002  -0.000   0.266   0.001   0.000   0.135
 total augmentation occupancy for first ion, spin component:           1
  1.858   0.223   0.024   0.000   0.155  -0.013   0.000  -0.062
  0.223   0.053  -0.034   0.000  -0.182  -0.007   0.000  -0.036
  0.024  -0.034   1.461   0.000   0.030   0.277   0.000  -0.008
  0.000   0.000   0.000   1.815   0.000   0.000   0.115   0.000
  0.155  -0.182   0.030   0.000   1.588  -0.007   0.000   0.225
 -0.013  -0.007   0.277   0.000  -0.007   0.053   0.000  -0.003
  0.000   0.000   0.000   0.115   0.000   0.000   0.007   0.000
 -0.062  -0.036  -0.008   0.000   0.225  -0.003   0.000   0.036


------------------------ aborting loop because EDIFF is reached ----------------------------------------


    CHARGE:  cpu time    0.0040: real time    0.0040
    FORLOC:  cpu time    0.0024: real time    0.0024
    FORNL :  cpu time    0.0017: real time    0.0017
    FORHAR:  cpu time    0.0088: real time    0.0088
    MIXING:  cpu time    0.0015: real time    0.0015
    OFIELD:  cpu time    0.0000: real time    0.0000

 VOLUME and BASIS-vectors are now :
 -----------------------------------------------------------------------------
  energy-cutoff  :      400.00
  volume of cell :      256.07
      direct lattice vectors                 reciprocal lattice vectors
     6.350160000  0.000000000  0.000000000     0.157476347  0.000000000  0.000000000
     0.000000000  6.350160000  0.000000000     0.000000000  0.157476347  0.000000000
     0.000000000  0.000000000  6.350160000     0.000000000  0.000000000  0.157476347

  length of vectors
     6.350160000  6.350160000  6.350160000     0.157476347  0.157476347  0.157476347


 FORCES acting on ions
    electron-ion (+dipol)            ewald-force                    non-local-force                 convergence-correction
 -----------------------------------------------------------------------------------------------
   -.693E+02 -.132E+02 -.129E-04   0.122E+03 0.236E+02 0.857E-16   -.510E+02 -.921E+01 -.506E-26   -.769E-02 0.656E-02 -.161E-11
   0.662E+02 -.615E+02 0.155E-08   -.743E+02 0.693E+02 0.148E-17   0.690E+01 -.623E+01 -.465E-28   -.766E-03 -.246E-03 -.121E-12
   0.425E+02 0.815E+02 -.231E-07   -.482E+02 -.928E+02 0.774E-17   0.466E+01 0.863E+01 0.204E-28   -.801E-03 -.937E-03 -.125E-12
 -----------------------------------------------------------------------------------------------
   0.394E+02 0.680E+01 -.129E-04   0.000E+00 0.000E+00 0.949E-16   -.394E+02 -.681E+01 -.509E-26   -.926E-02 0.538E-02 -.186E-11


 POSITION                                       TOTAL-FORCE (eV/Angst)
 -----------------------------------------------------------------------------------
      5.54756      1.18910      0.00000         2.179042      1.145539      0.000000
      4.83409      1.80189      0.00000        -1.143932      1.524175     -0.000000
      5.08846      0.38521      0.00000        -1.031258     -2.668165     -0.000000
 -----------------------------------------------------------------------------------
    total drift:                                0.003853      0.001548     -0.000013


--------------------------------------------------------------------------------------------------------



  FREE ENERGIE OF THE ION-ELECTRON SYSTEM (eV)
  ---------------------------------------------------
  free  energy   TOTEN  =       -14.12177994 eV

  energy  without entropy=      -14.12177994  energy(sigma->0) =      -14.12177994

 d Force = 0.1885505E+00[ 0.121E+00, 0.256E+00]  d Energy = 0.1861884E+00 0.236E-02
 d Force = 0.6162655E+01[ 0.605E+01, 0.627E+01]  d Ewald  = 0.6162585E+01 0.694E-04


--------------------------------------------------------------------------------------------------------


    POTLOK:  cpu time    0.0242: real time    0.0242


--------------------------------------------------------------------------------------------------------


           RANDOM_SEED =         843215511               18                0
   IONSTEP:  cpu time    0.0000: real time    0.0000

  ENERGY OF THE ELECTRON-ION-THERMOSTAT SYSTEM (eV)
  ---------------------------------------------------
% ion-electron   TOTEN  =       -14.121780  see above
  kinetic energy EKIN   =         0.492563
  kin. lattice  EKIN_LAT=         0.000000  (temperature 1905.31 K)
  nose potential ES     =         0.000000
  nose kinetic   EPS    =         0.000000
  ---------------------------------------------------
  total energy   ETOTAL =       -13.629217 eV

  maximum distance moved by ions :      0.12E-01

    WAVPRE:  cpu time    0.0069: real time    0.0069
    FEWALD:  cpu time    0.0001: real time    0.0001
    ORTHCH:  cpu time    0.0009: real time    0.0009
 Prediction of Wavefunctions ALPHA= 1.504 BETA=-0.555
     LOOP+:  cpu time    0.2525: real time    0.2525


--------------------------------------- Iteration    100(   1)  ---------------------------------------


    POTLOK:  cpu time    0.0239: real time    0.0239
    SETDIJ:  cpu time    0.0007: real time    0.0007
     EDDAV:  cpu time    0.0153: real time    0.0153
       DOS:  cpu time    0.0001: real time    0.0001
    CHARGE:  cpu time    0.0039: real time    0.0039
    MIXING:  cpu time    0.0010: real time    0.0010
    --------------------------------------------
      LOOP:  cpu time    0.0449: real time    0.0449

 eigenvalue-minimisations  :    24
 total energy-change (2. order) :-0.7574665E-01  (-0.6530287E-01)
 number of electron       8.0000090 magnetization 
 augmentation part        0.6827473 magnetization 

 Broyden mixing:
  rms(total) = 0.26405E-01    rms(broyden)= 0.26291E-01
  rms(prec ) = 0.34483E-01
  weight for this iteration     100.00

 Free energy of the ion-electron system (eV)
  ---------------------------------------------------
  alpha Z        PSCENC =         0.87564028
  Ewald energy   TEWEN  =       -19.62036835
  -Hartree energ DENC   =      -378.17281341
  -exchange      EXHF   =         0.00000000
  -V(xc)+E(xc)   XCENC  =        33.96647986
  PAW double counting   =       322.36640041     -324.43736220
  entropy T*S    EENTRO =        -0.00000000
  eigenvalues    EBANDS =      -106.39590018
  atomic energy  EATOM  =       457.22046137
  Solvation  Ediel_sol  =         0.00000000
  ---------------------------------------------------
  free energy    TOTEN  =       -14.19746223 eV

  energy without entropy =      -14.19746223  energy(sigma->0) =      -14.19746223


--------------------------------------------------------------------------------------------------------




--------------------------------------- Iteration    100(   2)  ---------------------------------------


    POTLOK:  cpu time    0.0244: real time    0.0244
    SETDIJ:  cpu time    0.0007: real time    0.0007
     EDDAV:  cpu time    0.0085: real time    0.0085
       DOS:  cpu time    0.0001: real time    0.0001
    CHARGE:  cpu time    0.0041: real time    0.0041
    MIXING:  cpu time    0.0012: real time    0.0012
    --------------------------------------------
      LOOP:  cpu time    0.0390: real time    0.0390

 eigenvalue-minimisations  :    16
 total energy-change (2. order) :-0.4006357E-03  (-0.1281951E-02)
 number of electron       8.0000089 magnetization 
 augmentation part        0.6792589 magnetization 

 Broyden mixing:
  rms(total) = 0.12145E-01    rms(broyden)= 0.12121E-01
  rms(prec ) = 0.14635E-01
  weight for this iteration     100.00

 eigenvalues of (default mixing * dielectric matrix)
  average eigenvalue GAMMA=   1.2464
  1.2464

 Free energy of the ion-electron system (eV)
  ---------------------------------------------------
  alpha Z        PSCENC =         0.87564028
  Ewald energy   TEWEN  =       -19.62036835
  -Hartree energ DENC   =      -378.49813478
  -exchange      EXHF   =         0.00000000
  -V(xc)+E(xc)   XCENC  =        33.98352157
  PAW double counting   =       323.69594306     -325.77836803
  entropy T*S    EENTRO =        -0.00000000
  eigenvalues    EBANDS =      -106.07655799
  atomic energy  EATOM  =       457.22046137
  Solvation  Ediel_sol  =         0.00000000
  ---------------------------------------------------
  free energy    TOTEN  =       -14.19786287 eV

  energy without entropy =      -14.19786287  energy(sigma->0) =      -14.19786287


--------------------------------------------------------------------------------------------------------




--------------------------------------- Iteration    100(   3)  ---------------------------------------


    POTLOK:  cpu time    0.0241: real time    0.0241
    SETDIJ:  cpu time    0.0007: real time    0.0007
     EDDAV:  cpu time    0.0163: real time    0.0163
       DOS:  cpu time    0.0001: real time    0.0001
    --------------------------------------------
      LOOP:  cpu time    0.0412: real time    0.0412

 eigenvalue-minimisations  :    32
 total energy-change (2. order) :-0.6705333E-04  (-0.1734611E-04)
 number of electron       8.0000089 magnetization 
 augmentation part        0.6792589 magnetization 

 Free energy of the ion-electron system (eV)
  ---------------------------------------------------
  alpha Z        PSCENC =         0.87564028
  Ewald energy   TEWEN  =       -19.62036835
  -Hartree energ DENC   =      -378.47612280
  -exchange      EXHF   =         0.00000000
  -V(xc)+E(xc)   XCENC  =        33.98181479
  PAW double counting   =       324.15073993     -326.23260247
  entropy T*S    EENTRO =        -0.00000000
  eigenvalues    EBANDS =      -106.09749267
  atomic energy  EATOM  =       457.22046137
  Solvation  Ediel_sol  =         0.00000000
  ---------------------------------------------------
  free energy    TOTEN  =       -14.19792992 eV

  energy without entropy =      -14.19792992  energy(sigma->0) =      -14.19792992


--------------------------------------------------------------------------------------------------------




 average (electrostatic) potential at core
  the test charge radii are     0.7215  0.5201
  (the norm of the test charge is              1.0000)
       1 -80.2519       2 -43.9835       3 -44.2736



 E-fermi :  -6.3065     XC(G=0):  -1.7871     alpha+bet : -0.5081


 k-point     1 :       0.0000    0.0000    0.0000
  band No.  band energies     occupation 
      1     -24.8225      2.00000
      2     -12.3598      2.00000
      3      -9.0722      2.00000
      4      -6.7943      2.00000
      5      -1.3029      0.00000
      6       1.9560      0.00000
      7       2.1250      0.00000
      8       2.5587      0.00000


--------------------------------------------------------------------------------------------------------


 soft charge-density along one line, spin component           1
         0         1         2         3         4         5         6         7         8         9
 total charge-density along one line

 pseudopotential strength for first ion, spin component:           1
 13.751  -0.520   0.021   0.000   0.119  -0.001  -0.000  -0.006
 -0.520   0.118  -0.002  -0.000  -0.015   0.000   0.000   0.002
  0.021  -0.002 -10.514  -0.000   0.008   0.283   0.000  -0.001
  0.000  -0.000  -0.000 -10.290  -0.000   0.000   0.245   0.000
  0.119  -0.015   0.008  -0.000 -10.441  -0.001   0.000   0.271
 -0.001   0.000   0.283   0.000  -0.001   0.129  -0.000   0.000
 -0.000   0.000   0.000   0.245   0.000  -0.000   0.141  -0.000
 -0.006   0.002  -0.001   0.000   0.271   0.000  -0.000   0.133
 total augmentation occupancy for first ion, spin component:           1
  1.865   0.195   0.021   0.000   0.173  -0.011   0.000  -0.050
  0.195   0.044  -0.029   0.000  -0.171  -0.006   0.000  -0.032
  0.021  -0.029   1.407   0.000   0.031   0.255   0.000  -0.003
  0.000   0.000   0.000   1.813   0.000   0.000   0.109   0.000
  0.173  -0.171   0.031   0.000   1.534  -0.003   0.000   0.211
 -0.011  -0.006   0.255   0.000  -0.003   0.046   0.000  -0.001
  0.000   0.000   0.000   0.109   0.000   0.000   0.007   0.000
 -0.050  -0.032  -0.003   0.000   0.211  -0.001   0.000   0.032


------------------------ aborting loop because EDIFF is reached ----------------------------------------


    CHARGE:  cpu time    0.0049: real time    0.0049
    FORLOC:  cpu time    0.0024: real time    0.0024
    FORNL :  cpu time    0.0017: real time    0.0017
    FORHAR:  cpu time    0.0085: real time    0.0085
    MIXING:  cpu time    0.0012: real time    0.0012
    OFIELD:  cpu time    0.0000: real time    0.0000

 VOLUME and BASIS-vectors are now :
 -----------------------------------------------------------------------------
  energy-cutoff  :      400.00
  volume of cell :      256.07
      direct lattice vectors                 reciprocal lattice vectors
     6.350160000  0.000000000  0.000000000     0.157476347  0.000000000  0.000000000
     0.000000000  6.350160000  0.000000000     0.000000000  0.157476347  0.000000000
     0.000000000  0.000000000  6.350160000     0.000000000  0.000000000  0.157476347

  length of vectors
     6.350160000  6.350160000  6.350160000     0.157476347  0.157476347  0.157476347


 FORCES acting on ions
    electron-ion (+dipol)            ewald-force                    non-local-force                 convergence-correction
 -----------------------------------------------------------------------------------------------
   -.626E+02 -.109E+02 -.651E-05   0.111E+03 0.194E+02 0.111E-15   -.491E+02 -.766E+01 0.608E-26   0.517E-01 -.850E-01 0.710E-11
   0.595E+02 -.581E+02 0.723E-07   -.639E+02 0.626E+02 -.108E-16   0.539E+01 -.515E+01 0.775E-28   0.315E-02 0.362E-03 0.348E-12
   0.426E+02 0.747E+02 -.321E-07   -.466E+02 -.821E+02 -.513E-17   0.417E+01 0.711E+01 -.922E-28   0.603E-02 0.827E-02 0.389E-12
 -----------------------------------------------------------------------------------------------
   0.395E+02 0.577E+01 -.647E-05   0.000E+00 0.142E-13 0.949E-16   -.395E+02 -.570E+01 0.606E-26   0.609E-01 -.764E-01 0.784E-11


 POSITION                                       TOTAL-FORCE (eV/Angst)
 -----------------------------------------------------------------------------------
      5.54280      1.19917      0.00000        -1.181982      0.811759     -0.000000
      4.79965      1.86976      0.00000         1.018229     -0.589123     -0.000000
      5.02851      0.37299      0.00000         0.168143     -0.229938     -0.000000
 -----------------------------------------------------------------------------------
    total drift:                                0.004389     -0.007302     -0.000006


--------------------------------------------------------------------------------------------------------



  FREE ENERGIE OF THE ION-ELECTRON SYSTEM (eV)
  ---------------------------------------------------
  free  energy   TOTEN  =       -14.19792992 eV

  energy  without entropy=      -14.19792992  energy(sigma->0) =      -14.19792992

 d Force = 0.8496964E-01[-0.685E-01, 0.238E+00]  d Energy = 0.7614998E-01 0.882E-02
 d Force = 0.1042868E+02[ 0.992E+01, 0.109E+02]  d Ewald  = 0.1041925E+02 0.944E-02


--------------------------------------------------------------------------------------------------------


    POTLOK:  cpu time    0.0271: real time    0.0271


--------------------------------------------------------------------------------------------------------


           RANDOM_SEED =         843215511               18                0
   IONSTEP:  cpu time    0.0001: real time    0.0001

  ENERGY OF THE ELECTRON-ION-THERMOSTAT SYSTEM (eV)
  ---------------------------------------------------
% ion-electron   TOTEN  =       -14.197930  see above
  kinetic energy EKIN   =         0.564748
  kin. lattice  EKIN_LAT=         0.000000  (temperature 2184.53 K)
  nose potential ES     =         0.000000
  nose kinetic   EPS    =         0.000000
  ---------------------------------------------------
  total energy   ETOTAL =       -13.633181 eV

  maximum distance moved by ions :      0.11E-01


 mean value of Nose-termostat <S>:     1.000 mean value of <T> :  1724.072
 mean temperature <T/S>/<1/S>  :  1724.072

    WAVPRE:  cpu time    0.0082: real time    0.0082
    FEWALD:  cpu time    0.0001: real time    0.0001
    ORTHCH:  cpu time    0.0010: real time    0.0010
 Prediction of Wavefunctions ALPHA= 0.966 BETA=-0.062
    POTLOK:  cpu time    0.0249: real time    0.0250
    EDDIAG:  cpu time    0.0017: real time    0.0017
 writing wavefunctions
     LOOP+:  cpu time    0.2088: real time    0.2089
    4ORBIT:  cpu time    0.0000: real time    0.0000

 total amount of memory used by VASP MPI-rank0    38769. kBytes
=======================================================================

   base      :      30000. kBytes
   nonl-proj :        827. kBytes
   fftplans  :       2401. kBytes
   grid      :       5079. kBytes
   one-center:          9. kBytes
   wavefun   :        453. kBytes

  
  
 General timing and accounting informations for this job:
 ========================================================
  
                  Total CPU time used (sec):       22.461
                            User time (sec):       20.350
                          System time (sec):        2.111
                         Elapsed time (sec):       22.785
  
                   Maximum memory used (kb):       47364.
                   Average memory used (kb):           0.
  
                          Minor page faults:       746505
                          Major page faults:           40
                 Voluntary context switches:         1269
