<?xml version="1.0" encoding="ISO-8859-1"?>
<modeling>
 <generator>
  <i name="program" type="string">vasp </i>
  <i name="version" type="string">5.4.4.18Apr17-6-g9f103f2a35  </i>
  <i name="subversion" type="string">(build Dec 28 2021 15:39:15) complex            parallel </i>
  <i name="platform" type="string">LinuxGNU </i>
  <i name="date" type="string">2021 12 31 </i>
  <i name="time" type="string">11:01:35 </i>
 </generator>
 <incar>
  <i type="string" name="PREC">normal    ! standard precision</i>
  <i type="int" name="IBRION">     0</i>
  <i type="int" name="NSW">   100</i>
  <i name="ENMAX">    400.00000000</i>
  <i name="POTIM">      1.00000000</i>
  <i name="TEBEG">   2000.00000000</i>
  <i name="TEEND">   2000.00000000</i>
  <i name="SMASS">     -3.00000000</i>
  <i type="int" name="ISMEAR">     0</i>
  <i name="SIGMA">      0.10000000</i>
  <v type="int" name="KPOINT_BSE">    -1     0     0     0</v>
 </incar>
 <structure name="primitive_cell" >
  <crystal>
   <varray name="basis" >
    <v>       6.35016000       0.00000000       0.00000000 </v>
    <v>       0.00000000       6.35016000       0.00000000 </v>
    <v>       0.00000000       0.00000000       6.35016000 </v>
   </varray>
   <i name="volume">    256.06723029 </i>
   <varray name="rec_basis" >
    <v>       0.15747635       0.00000000       0.00000000 </v>
    <v>       0.00000000       0.15747635       0.00000000 </v>
    <v>       0.00000000       0.00000000       0.15747635 </v>
   </varray>
  </crystal>
  <varray name="positions" >
   <v>       0.00000000       0.00000000       0.00000000 </v>
   <v>       0.09166667      -0.11916667       0.00000000 </v>
   <v>       0.09166667       0.11916667       0.00000000 </v>
  </varray>
 </structure>
 <varray name="primitive_index" >
  <v type="int" >        1 </v>
  <v type="int" >        2 </v>
  <v type="int" >        3 </v>
 </varray>
 <kpoints>
  <varray name="kpointlist" >
   <v>       0.00000000       0.00000000       0.00000000 </v>
  </varray>
  <varray name="weights" >
   <v>       1.00000000 </v>
  </varray>
 </kpoints>
 <parameters>
  <separator name="general" >
   <i type="string" name="SYSTEM">unknown system</i>
   <i type="logical" name="LCOMPAT"> F  </i>
  </separator>
  <separator name="electronic" >
   <i type="string" name="PREC">normal</i>
   <i name="ENMAX">    400.00000000</i>
   <i name="ENAUG">    605.39200000</i>
   <i name="EDIFF">      0.00010000</i>
   <i type="int" name="IALGO">    38</i>
   <i type="int" name="IWAVPR">    12</i>
   <i type="int" name="NBANDS">     8</i>
   <i name="NELECT">      8.00000000</i>
   <i type="int" name="TURBO">     0</i>
   <i type="int" name="IRESTART">     0</i>
   <i type="int" name="NREBOOT">     0</i>
   <i type="int" name="NMIN">     0</i>
   <i name="EREF">      0.00000000</i>
   <separator name="electronic smearing" >
    <i type="int" name="ISMEAR">     0</i>
    <i name="SIGMA">      0.10000000</i>
    <i name="KSPACING">      0.50000000</i>
    <i type="logical" name="KGAMMA"> T  </i>
   </separator>
   <separator name="electronic projectors" >
    <i type="logical" name="LREAL"> F  </i>
    <v name="ROPT">      0.00000000      0.00000000</v>
    <i type="int" name="LMAXPAW">  -100</i>
    <i type="int" name="LMAXMIX">     2</i>
    <i type="logical" name="NLSPLINE"> F  </i>
   </separator>
   <separator name="electronic startup" >
    <i type="int" name="ISTART">     0</i>
    <i type="int" name="ICHARG">     2</i>
    <i type="int" name="INIWAV">     1</i>
   </separator>
   <separator name="electronic spin" >
    <i type="int" name="ISPIN">     1</i>
    <i type="logical" name="LNONCOLLINEAR"> F  </i>
    <v name="MAGMOM">      1.00000000      1.00000000      1.00000000</v>
    <i name="NUPDOWN">     -1.00000000</i>
    <i type="logical" name="LSORBIT"> F  </i>
    <v name="SAXIS">      0.00000000      0.00000000      1.00000000</v>
    <i type="logical" name="LSPIRAL"> F  </i>
    <v name="QSPIRAL">      0.00000000      0.00000000      0.00000000</v>
    <i type="logical" name="LZEROZ"> F  </i>
   </separator>
   <separator name="electronic exchange-correlation" >
    <i type="logical" name="LASPH"> F  </i>
    <i type="logical" name="LMETAGGA"> F  </i>
   </separator>
   <separator name="electronic convergence" >
    <i type="int" name="NELM">    60</i>
    <i type="int" name="NELMDL">    -5</i>
    <i type="int" name="NELMIN">     2</i>
    <i name="ENINI">    400.00000000</i>
    <separator name="electronic convergence detail" >
     <i type="logical" name="LDIAG"> T  </i>
     <i type="logical" name="LSUBROT"> F  </i>
     <i name="WEIMIN">      0.00100000</i>
     <i name="EBREAK">      0.00000313</i>
     <i name="DEPER">      0.30000000</i>
     <i type="int" name="NRMM">     4</i>
     <i name="TIME">      0.40000000</i>
    </separator>
   </separator>
   <separator name="electronic mixer" >
    <i name="AMIX">      0.40000000</i>
    <i name="BMIX">      1.00000000</i>
    <i name="AMIN">      0.10000000</i>
    <i name="AMIX_MAG">      1.60000000</i>
    <i name="BMIX_MAG">      1.00000000</i>
    <separator name="electronic mixer details" >
     <i type="int" name="IMIX">     4</i>
     <i type="logical" name="MIXFIRST"> F  </i>
     <i type="int" name="MAXMIX">   -45</i>
     <i name="WC">    100.00000000</i>
     <i type="int" name="INIMIX">     1</i>
     <i type="int" name="MIXPRE">     1</i>
     <i type="int" name="MREMOVE">     5</i>
    </separator>
   </separator>
   <separator name="electronic dipolcorrection" >
    <i type="logical" name="LDIPOL"> F  </i>
    <i type="logical" name="LMONO"> F  </i>
    <i type="int" name="IDIPOL">     0</i>
    <i name="EPSILON">      1.00000000</i>
    <v name="DIPOL">   -100.00000000   -100.00000000   -100.00000000</v>
    <i name="EFIELD">      0.00000000</i>
   </separator>
  </separator>
  <separator name="grids" >
   <i type="int" name="NGX">    32</i>
   <i type="int" name="NGY">    32</i>
   <i type="int" name="NGZ">    32</i>
   <i type="int" name="NGXF">    64</i>
   <i type="int" name="NGYF">    64</i>
   <i type="int" name="NGZF">    64</i>
   <i type="logical" name="ADDGRID"> F  </i>
  </separator>
  <separator name="ionic" >
   <i type="int" name="NSW">   100</i>
   <i type="int" name="IBRION">     0</i>
   <i type="int" name="MDALGO">     0</i>
   <i type="int" name="ISIF">     0</i>
   <i name="PSTRESS">      0.00000000</i>
   <i name="EDIFFG">      0.00100000</i>
   <i type="int" name="NFREE">     0</i>
   <i name="POTIM">      1.00000000</i>
   <i name="SMASS">     -3.00000000</i>
   <i name="SCALEE">      1.00000000</i>
  </separator>
  <separator name="ionic md" >
   <i name="TEBEG">   2000.00000000</i>
   <i name="TEEND">   2000.00000000</i>
   <i type="int" name="NBLOCK">     1</i>
   <i type="int" name="KBLOCK">   100</i>
   <i type="int" name="NPACO">   256</i>
   <i name="APACO">     16.00000000</i>
  </separator>
  <separator name="symmetry" >
   <i type="int" name="ISYM">     2</i>
   <i name="SYMPREC">      0.00001000</i>
  </separator>
  <separator name="dos" >
   <i type="int" name="LORBIT">     0</i>
   <v name="RWIGS">     -1.00000000     -1.00000000</v>
   <i type="int" name="NEDOS">   301</i>
   <i name="EMIN">     10.00000000</i>
   <i name="EMAX">    -10.00000000</i>
   <i name="EFERMI">      0.00000000</i>
  </separator>
  <separator name="writing" >
   <i type="int" name="NWRITE">     2</i>
   <i type="logical" name="LWAVE"> T  </i>
   <i type="logical" name="LDOWNSAMPLE"> F  </i>
   <i type="logical" name="LCHARG"> T  </i>
   <i type="logical" name="LPARD"> F  </i>
   <i type="logical" name="LVTOT"> F  </i>
   <i type="logical" name="LVHAR"> F  </i>
   <i type="logical" name="LELF"> F  </i>
   <i type="logical" name="LOPTICS"> F  </i>
   <v name="STM">      0.00000000      0.00000000      0.00000000      0.00000000      0.00000000      0.00000000      0.00000000</v>
  </separator>
  <separator name="performance" >
   <i type="int" name="NPAR">     4</i>
   <i type="int" name="NSIM">     4</i>
   <i type="int" name="NBLK">    -1</i>
   <i type="logical" name="LPLANE"> T  </i>
   <i type="logical" name="LSCALAPACK"> T  </i>
   <i type="logical" name="LSCAAWARE"> F  </i>
   <i type="logical" name="LSCALU"> F  </i>
   <i type="logical" name="LASYNC"> F  </i>
   <i type="logical" name="LORBITALREAL"> F  </i>
  </separator>
  <separator name="miscellaneous" >
   <i type="int" name="IDIOT">     3</i>
   <i type="int" name="ISPECIAL">     0</i>
   <i type="logical" name="LMUSIC"> F  </i>
   <v name="POMASS">     16.00000000      1.00000000</v>
   <v name="DARWINR">      0.00000000      0.00000000</v>
   <v name="DARWINV">      1.00000000      1.00000000</v>
   <i type="logical" name="LCORR"> T  </i>
  </separator>
  <i type="logical" name="GGA_COMPAT"> T  </i>
  <i type="logical" name="LBERRY"> F  </i>
  <i type="int" name="ICORELEVEL">     0</i>
  <i type="logical" name="LDAU"> F  </i>
  <i type="int" name="I_CONSTRAINED_M">     0</i>
  <separator name="electronic exchange-correlation" >
   <i type="string" name="GGA">--</i>
   <i type="int" name="VOSKOWN">     0</i>
   <i type="logical" name="LHFCALC"> F  </i>
   <i type="string" name="PRECFOCK"></i>
   <i type="logical" name="LSYMGRAD"> F  </i>
   <i type="logical" name="LHFONE"> F  </i>
   <i type="logical" name="LRHFCALC"> F  </i>
   <i type="logical" name="LTHOMAS"> F  </i>
   <i type="logical" name="LMODELHF"> F  </i>
   <i name="ENCUT4O">     -1.00000000</i>
   <i type="int" name="EXXOEP">     0</i>
   <i type="int" name="FOURORBIT">     0</i>
   <i name="AEXX">      0.00000000</i>
   <i name="HFALPHA">      0.00000000</i>
   <i name="MCALPHA">      0.00000000</i>
   <i name="ALDAX">      1.00000000</i>
   <i name="AGGAX">      1.00000000</i>
   <i name="ALDAC">      1.00000000</i>
   <i name="AGGAC">      1.00000000</i>
   <i type="int" name="NKREDX">     1</i>
   <i type="int" name="NKREDY">     1</i>
   <i type="int" name="NKREDZ">     1</i>
   <i type="logical" name="SHIFTRED"> F  </i>
   <i type="logical" name="ODDONLY"> F  </i>
   <i type="logical" name="EVENONLY"> F  </i>
   <i type="int" name="LMAXFOCK">     0</i>
   <i type="int" name="NMAXFOCKAE">     0</i>
   <i type="logical" name="LFOCKAEDFT"> F  </i>
   <i name="HFSCREEN">      0.00000000</i>
   <i name="HFSCREENC">      0.00000000</i>
   <i type="int" name="NBANDSGWLOW">     0</i>
  </separator>
  <separator name="vdW DFT" >
   <i type="logical" name="LUSE_VDW"> F  </i>
   <i name="Zab_VDW">     -0.84910000</i>
   <i name="PARAM1">      0.12340000</i>
   <i name="PARAM2">      1.00000000</i>
   <i name="PARAM3">      0.00000000</i>
  </separator>
  <separator name="model GW" >
   <i type="int" name="MODEL_GW">     0</i>
   <i name="MODEL_EPS0">     51.21344606</i>
   <i name="MODEL_ALPHA">      1.00000000</i>
  </separator>
  <separator name="linear response parameters" >
   <i type="logical" name="LEPSILON"> F  </i>
   <i type="logical" name="LRPA"> F  </i>
   <i type="logical" name="LNABLA"> F  </i>
   <i type="logical" name="LVEL"> F  </i>
   <i type="int" name="KINTER">     0</i>
   <i name="CSHIFT">      0.10000000</i>
   <i name="OMEGAMAX">     -1.00000000</i>
   <i name="DEG_THRESHOLD">      0.00200000</i>
   <i name="RTIME">     -0.10000000</i>
   <i name="WPLASMAI">      0.00000000</i>
   <v name="DFIELD">      0.00000000      0.00000000      0.00000000</v>
   <v name="WPLASMA">      0.00000000      0.00000000      0.00000000      0.00000000      0.00000000      0.00000000      0.00000000      0.00000000      0.00000000</v>
  </separator>
  <separator name="orbital magnetization" >
   <i type="logical" name="NUCIND"> F  </i>
   <v name="MAGPOS">      0.00000000      0.00000000      0.00000000</v>
   <i type="logical" name="LNICSALL"> T  </i>
   <i type="logical" name="ORBITALMAG"> F  </i>
   <i type="logical" name="LMAGBLOCH"> F  </i>
   <i type="logical" name="LCHIMAG"> F  </i>
   <i type="logical" name="LGAUGE"> T  </i>
   <i type="int" name="MAGATOM">     0</i>
   <v name="MAGDIPOL">      0.00000000      0.00000000      0.00000000</v>
   <v name="AVECCONST">      0.00000000      0.00000000      0.00000000</v>
  </separator>
  <separator name="response functions" >
   <i type="logical" name="LADDER"> F  </i>
   <i type="logical" name="LRPAFORCE"> F  </i>
   <i type="logical" name="LFXC"> F  </i>
   <i type="logical" name="LHARTREE"> T  </i>
   <i type="int" name="IBSE">     0</i>
   <v type="int" name="KPOINT">    -1     0     0     0</v>
   <i type="logical" name="LTCTE"> F  </i>
   <i type="logical" name="LTETE"> F  </i>
   <i type="logical" name="LTRIPLET"> F  </i>
   <i type="logical" name="LFXCEPS"> F  </i>
   <i type="logical" name="LFXHEG"> F  </i>
   <i type="int" name="NATURALO">     2</i>
   <i type="logical" name="L2ORDER"> F  </i>
   <i type="logical" name="LMP2LT"> F  </i>
   <i type="logical" name="LUSEW"> F  </i>
   <i name="ENCUTGW">     -2.00000000</i>
   <i name="ENCUTGWSOFT">     -2.00000000</i>
   <i name="ENCUTLF">     -1.00000000</i>
   <i type="int" name="LMAXMP2">    -1</i>
   <i name="SCISSOR">      0.00000000</i>
   <i type="int" name="NOMEGA">     0</i>
   <i type="int" name="NOMEGAR">     0</i>
   <i type="int" name="NBANDSGW">    -1</i>
   <i type="int" name="NBANDSO">    -1</i>
   <i type="int" name="NBANDSV">    -1</i>
   <i type="int" name="NELM">     1</i>
   <i type="int" name="NELMHF">     1</i>
   <i type="int" name="DIM">     3</i>
   <i type="int" name="ANTIRES">     0</i>
   <i name="OMEGAMAX">    -30.00000000</i>
   <i name="OMEGAMIN">    -30.00000000</i>
   <i name="OMEGATL">   -200.00000000</i>
   <i type="int" name="OMEGAGRID">   140</i>
   <i name="CSHIFT">     -0.10000000</i>
   <i type="logical" name="SELFENERGY"> F  </i>
   <i type="logical" name="LSPECTRAL"> F  </i>
   <i type="logical" name="LSPECTRALGW"> F  </i>
   <i type="logical" name="LSINGLES"> F  </i>
   <i type="logical" name="LFERMIGW"> F  </i>
   <i type="logical" name="ODDONLYGW"> F  </i>
   <i type="logical" name="EVENONLYGW"> F  </i>
   <i type="int" name="NKREDLFX">     1</i>
   <i type="int" name="NKREDLFY">     1</i>
   <i type="int" name="NKREDLFZ">     1</i>
   <i type="int" name="MAXMEM">  2800</i>
   <i type="int" name="TELESCOPE">     0</i>
   <i type="int" name="TAUPAR">     1</i>
   <i type="int" name="OMEGAPAR">    -1</i>
   <i name="LAMBDA">      1.00000000</i>
  </separator>
  <separator name="External order field" >
   <i name="OFIELD_KAPPA">      0.00000000</i>
   <v name="OFIELD_K">      0.00000000      0.00000000      0.00000000</v>
   <i name="OFIELD_Q6_NEAR">      0.00000000</i>
   <i name="OFIELD_Q6_FAR">      0.00000000</i>
   <i name="OFIELD_A">      0.00000000</i>
  </separator>
 </parameters>
 <atominfo>
  <atoms>       3 </atoms>
  <types>       2 </types>
  <array name="atoms" >
   <dimension dim="1">ion</dimension>
   <field type="string">element</field>
   <field type="int">atomtype</field>
   <set>
    <rc><c>O </c><c>   1</c></rc>
    <rc><c>H </c><c>   2</c></rc>
    <rc><c>H </c><c>   2</c></rc>
   </set>
  </array>
  <array name="atomtypes" >
   <dimension dim="1">type</dimension>
   <field type="int">atomspertype</field>
   <field type="string">element</field>
   <field>mass</field>
   <field>valence</field>
   <field type="string">pseudopotential</field>
   <set>
    <rc><c>   1</c><c>O </c><c>     16.00000000</c><c>      6.00000000</c><c> PAW_RPBE O 08Apr2002                   </c></rc>
    <rc><c>   2</c><c>H </c><c>      1.00000000</c><c>      1.00000000</c><c> PAW_RPBE H 15Jun2001                   </c></rc>
   </set>
  </array>
 </atominfo>
 <structure name="initialpos" >
  <crystal>
   <varray name="basis" >
    <v>       6.35016000       0.00000000       0.00000000 </v>
    <v>       0.00000000       6.35016000       0.00000000 </v>
    <v>       0.00000000       0.00000000       6.35016000 </v>
   </varray>
   <i name="volume">    256.06723029 </i>
   <varray name="rec_basis" >
    <v>       0.15747635       0.00000000       0.00000000 </v>
    <v>       0.00000000       0.15747635       0.00000000 </v>
    <v>       0.00000000       0.00000000       0.15747635 </v>
   </varray>
  </crystal>
  <varray name="positions" >
   <v>       0.00000000       0.00000000       0.00000000 </v>
   <v>       0.09166667       0.88083333       0.00000000 </v>
   <v>       0.09166667       0.11916667       0.00000000 </v>
  </varray>
  <varray name="selective"  type="logical" >
   <v type="logical" >  T  T  F </v>
   <v type="logical" >  T  T  F </v>
   <v type="logical" >  T  T  F </v>
  </varray>
  <varray name="velocities" >
   <v>      -0.00177228       0.00240992       0.00000000 </v>
   <v>      -0.00188657      -0.00857940       0.00000000 </v>
   <v>       0.00320495       0.00410019       0.00000000 </v>
  </varray>
  <nose>
   <v>      -3.00000000       0.00000000    2000.00000000    2000.00000000 </v>
  </nose>
 </structure>
 <calculation>
  <scstep>
   <time name="dav">    0.01    0.01</time>
   <time name="total">    0.03    0.03</time>
   <energy>
    <i name="alphaZ">      0.87564028 </i>
    <i name="ewald">    -13.80331150 </i>
    <i name="hartreedc">   -348.16693738 </i>
    <i name="XCdc">     32.30093936 </i>
    <i name="pawpsdc">    247.56105404 </i>
    <i name="pawaedc">   -249.42875511 </i>
    <i name="eentropy">     -0.00000000 </i>
    <i name="bandstr">    -87.10986918 </i>
    <i name="atom">    457.22046137 </i>
    <i name="e_fr_energy">     39.44922188 </i>
    <i name="e_wo_entrp">     39.44922188 </i>
    <i name="e_0_energy">     39.44922188 </i>
   </energy>
  </scstep>
  <scstep>
   <time name="dav">    0.02    0.02</time>
   <time name="total">    0.02    0.02</time>
   <energy>
    <i name="e_fr_energy">    -12.96115637 </i>
    <i name="e_wo_entrp">    -12.96115637 </i>
    <i name="e_0_energy">    -12.96115637 </i>
   </energy>
  </scstep>
  <scstep>
   <time name="dav">    0.01    0.01</time>
   <time name="total">    0.01    0.01</time>
   <energy>
    <i name="e_fr_energy">    -16.29100232 </i>
    <i name="e_wo_entrp">    -16.29100232 </i>
    <i name="e_0_energy">    -16.29100232 </i>
   </energy>
  </scstep>
  <scstep>
   <time name="dav">    0.01    0.01</time>
   <time name="total">    0.01    0.01</time>
   <energy>
    <i name="e_fr_energy">    -16.32463100 </i>
    <i name="e_wo_entrp">    -16.32463100 </i>
    <i name="e_0_energy">    -16.32463100 </i>
   </energy>
  </scstep>
  <scstep>
   <time name="dav">    0.02    0.02</time>
   <time name="total">    0.02    0.02</time>
   <energy>
    <i name="e_fr_energy">    -16.32467396 </i>
    <i name="e_wo_entrp">    -16.32467396 </i>
    <i name="e_0_energy">    -16.32467396 </i>
   </energy>
  </scstep>
  <scstep>
   <time name="dav">    0.01    0.01</time>
   <time name="total">    0.04    0.04</time>
   <energy>
    <i name="e_fr_energy">    -14.37425678 </i>
    <i name="e_wo_entrp">    -14.37425678 </i>
    <i name="e_0_energy">    -14.37425678 </i>
   </energy>
  </scstep>
  <scstep>
   <time name="dav">    0.01    0.01</time>
   <time name="total">    0.04    0.04</time>
   <energy>
    <i name="e_fr_energy">    -14.26313398 </i>
    <i name="e_wo_entrp">    -14.26313398 </i>
    <i name="e_0_energy">    -14.26313398 </i>
   </energy>
  </scstep>
  <scstep>
   <time name="dav">    0.01    0.01</time>
   <time name="total">    0.04    0.04</time>
   <energy>
    <i name="e_fr_energy">    -14.18791067 </i>
    <i name="e_wo_entrp">    -14.18791067 </i>
    <i name="e_0_energy">    -14.18791067 </i>
   </energy>
  </scstep>
  <scstep>
   <time name="dav">    0.01    0.01</time>
   <time name="total">    0.04    0.04</time>
   <energy>
    <i name="e_fr_energy">    -14.19383754 </i>
    <i name="e_wo_entrp">    -14.19383754 </i>
    <i name="e_0_energy">    -14.19383754 </i>
   </energy>
  </scstep>
  <scstep>
   <time name="dav">    0.01    0.01</time>
   <time name="total">    0.04    0.04</time>
   <energy>
    <i name="e_fr_energy">    -14.20259456 </i>
    <i name="e_wo_entrp">    -14.20259456 </i>
    <i name="e_0_energy">    -14.20259456 </i>
   </energy>
  </scstep>
  <scstep>
   <time name="dav">    0.01    0.01</time>
   <time name="total">    0.04    0.04</time>
   <energy>
    <i name="e_fr_energy">    -14.20542594 </i>
    <i name="e_wo_entrp">    -14.20542594 </i>
    <i name="e_0_energy">    -14.20542594 </i>
   </energy>
  </scstep>
  <scstep>
   <time name="dav">    0.01    0.01</time>
   <time name="total">    0.04    0.04</time>
   <energy>
    <i name="e_fr_energy">    -14.20683143 </i>
    <i name="e_wo_entrp">    -14.20683143 </i>
    <i name="e_0_energy">    -14.20683143 </i>
   </energy>
  </scstep>
  <scstep>
   <time name="dav">    0.01    0.01</time>
   <time name="total">    0.04    0.04</time>
   <energy>
    <i name="e_fr_energy">    -14.20711373 </i>
    <i name="e_wo_entrp">    -14.20711373 </i>
    <i name="e_0_energy">    -14.20711373 </i>
   </energy>
  </scstep>
  <scstep>
   <time name="dav">    0.01    0.01</time>
   <time name="total">    0.04    0.04</time>
   <energy>
    <i name="alphaZ">      0.87564028 </i>
    <i name="ewald">    -13.80331150 </i>
    <i name="hartreedc">   -383.09291560 </i>
    <i name="XCdc">     34.21927105 </i>
    <i name="pawpsdc">    333.92422281 </i>
    <i name="pawaedc">   -336.06407527 </i>
    <i name="eentropy">     -0.00000000 </i>
    <i name="bandstr">   -107.48649140 </i>
    <i name="atom">    457.22046137 </i>
    <i name="e_fr_energy">    -14.20719826 </i>
    <i name="e_wo_entrp">    -14.20719826 </i>
    <i name="e_0_energy">    -14.20719826 </i>
   </energy>
  </scstep>
  <structure>
   <crystal>
    <varray name="basis" >
     <v>       6.35016000       0.00000000       0.00000000 </v>
     <v>       0.00000000       6.35016000       0.00000000 </v>
     <v>       0.00000000       0.00000000       6.35016000 </v>
    </varray>
    <i name="volume">    256.06723029 </i>
    <varray name="rec_basis" >
     <v>       0.15747635       0.00000000       0.00000000 </v>
     <v>       0.00000000       0.15747635       0.00000000 </v>
     <v>       0.00000000       0.00000000       0.15747635 </v>
    </varray>
   </crystal>
   <varray name="positions" >
    <v>       0.00000000       0.00000000       0.00000000 </v>
    <v>       0.09166667       0.88083333       0.00000000 </v>
    <v>       0.09166667       0.11916667       0.00000000 </v>
   </varray>
  </structure>
  <varray name="forces" >
   <v>      -1.09009673       0.00000103      -0.00000000 </v>
   <v>       0.54541955      -0.72507941      -0.00000000 </v>
   <v>       0.54541939       0.72507911      -0.00000000 </v>
  </varray>
  <energy>
   <i name="e_fr_energy">    -14.20719826 </i>
   <i name="e_wo_entrp">    -14.20719826 </i>
   <i name="e_0_energy">     -0.00000000 </i>
   <i name="kinetic">      0.55672642 </i>
   <i name="lattice kinetic">      0.00000000 </i>
   <i name="nosepot">      0.00000000 </i>
   <i name="nosekinetic">      0.00000000 </i>
   <i name="total">    -13.65047184 </i>
  </energy>
  <time name="totalsc">    0.67    0.68</time>
 </calculation>
 <calculation>
  <scstep>
   <time name="dav">    0.01    0.01</time>
   <time name="total">    0.04    0.04</time>
   <energy>
    <i name="alphaZ">      0.87564028 </i>
    <i name="ewald">    -23.33037688 </i>
    <i name="hartreedc">   -378.20988243 </i>
    <i name="XCdc">     33.98030970 </i>
    <i name="pawpsdc">    333.90452475 </i>
    <i name="pawaedc">   -336.04419062 </i>
    <i name="eentropy">     -0.00000000 </i>
    <i name="bandstr">   -102.56888174 </i>
    <i name="atom">    457.22046137 </i>
    <i name="e_fr_energy">    -14.17239557 </i>
    <i name="e_wo_entrp">    -14.17239557 </i>
    <i name="e_0_energy">    -14.17239557 </i>
   </energy>
  </scstep>
  <scstep>
   <time name="dav">    0.01    0.01</time>
   <time name="total">    0.04    0.04</time>
   <energy>
    <i name="e_fr_energy">    -14.16098970 </i>
    <i name="e_wo_entrp">    -14.16098970 </i>
    <i name="e_0_energy">    -14.16098970 </i>
   </energy>
  </scstep>
  <scstep>
   <time name="dav">    0.01    0.01</time>
   <time name="total">    0.04    0.04</time>
   <energy>
    <i name="e_fr_energy">    -14.15941086 </i>
    <i name="e_wo_entrp">    -14.15941086 </i>
    <i name="e_0_energy">    -14.15941086 </i>
   </energy>
  </scstep>
  <scstep>
   <time name="dav">    0.01    0.01</time>
   <time name="total">    0.04    0.04</time>
   <energy>
    <i name="e_fr_energy">    -14.15932626 </i>
    <i name="e_wo_entrp">    -14.15932626 </i>
    <i name="e_0_energy">    -14.15932626 </i>
   </energy>
  </scstep>
  <scstep>
   <time name="dav">    0.01    0.01</time>
   <time name="total">    0.04    0.04</time>
   <energy>
    <i name="e_fr_energy">    -14.15945706 </i>
    <i name="e_wo_entrp">    -14.15945706 </i>
    <i name="e_0_energy">    -14.15945706 </i>
   </energy>
  </scstep>
  <scstep>
   <time name="dav">    0.01    0.01</time>
   <time name="total">    0.04    0.04</time>
   <energy>
    <i name="e_fr_energy">    -14.15955847 </i>
    <i name="e_wo_entrp">    -14.15955847 </i>
    <i name="e_0_energy">    -14.15955847 </i>
   </energy>
  </scstep>
  <scstep>
   <time name="dav">    0.01    0.01</time>
   <time name="total">    0.04    0.04</time>
   <energy>
    <i name="alphaZ">      0.87564028 </i>
    <i name="ewald">    -23.33037688 </i>
    <i name="hartreedc">   -375.71177881 </i>
    <i name="XCdc">     33.83870353 </i>
    <i name="pawpsdc">    320.37635173 </i>
    <i name="pawaedc">   -322.45869074 </i>
    <i name="eentropy">     -0.00000000 </i>
    <i name="bandstr">   -104.96995344 </i>
    <i name="atom">    457.22046137 </i>
    <i name="e_fr_energy">    -14.15964297 </i>
    <i name="e_wo_entrp">    -14.15964297 </i>
    <i name="e_0_energy">    -14.15964297 </i>
   </energy>
  </scstep>
  <structure>
   <crystal>
    <varray name="basis" >
     <v>       6.35016000       0.00000000       0.00000000 </v>
     <v>       0.00000000       6.35016000       0.00000000 </v>
     <v>       0.00000000       0.00000000       6.35016000 </v>
    </varray>
    <i name="volume">    256.06723029 </i>
    <varray name="rec_basis" >
     <v>       0.15747635       0.00000000       0.00000000 </v>
     <v>       0.00000000       0.15747635       0.00000000 </v>
     <v>       0.00000000       0.00000000       0.15747635 </v>
    </varray>
   </crystal>
   <varray name="positions" >
    <v>       0.99812420       0.00240992       0.00000000 </v>
    <v>       0.09060882       0.87115224       0.00000000 </v>
    <v>       0.09570033       0.12436855       0.00000000 </v>
   </varray>
  </structure>
  <varray name="forces" >
   <v>       1.32877464      -0.92104926       0.00000000 </v>
   <v>      -0.95691755       1.78046225       0.00000000 </v>
   <v>      -0.36913815      -0.86180672       0.00000000 </v>
  </varray>
  <energy>
   <i name="e_fr_energy">    -14.15964297 </i>
   <i name="e_wo_entrp">    -14.15964297 </i>
   <i name="e_0_energy">     -0.00000000 </i>
   <i name="kinetic">      0.52130775 </i>
   <i name="lattice kinetic">      0.00000000 </i>
   <i name="nosepot">      0.00000000 </i>
   <i name="nosekinetic">      0.00000000 </i>
   <i name="total">    -13.63833522 </i>
  </energy>
  <time name="totalsc">    0.32    0.32</time>
 </calculation>
 <calculation>
  <scstep>
   <time name="dav">    0.01    0.01</time>
   <time name="total">    0.04    0.04</time>
   <energy>
    <i name="alphaZ">      0.87564028 </i>
    <i name="ewald">    -29.68189100 </i>
    <i name="hartreedc">   -370.41432832 </i>
    <i name="XCdc">     33.56988219 </i>
    <i name="pawpsdc">    310.50991260 </i>
    <i name="pawaedc">   -312.55043739 </i>
    <i name="eentropy">     -0.00000000 </i>
    <i name="bandstr">   -103.51396226 </i>
    <i name="atom">    457.22046137 </i>
    <i name="e_fr_energy">    -13.98472252 </i>
    <i name="e_wo_entrp">    -13.98472252 </i>
    <i name="e_0_energy">    -13.98472252 </i>
   </energy>
  </scstep>
  <scstep>
   <time name="dav">    0.01    0.01</time>
   <time name="total">    0.04    0.04</time>
   <energy>
    <i name="e_fr_energy">    -13.98569947 </i>
    <i name="e_wo_entrp">    -13.98569947 </i>
    <i name="e_0_energy">    -13.98569947 </i>
   </energy>
  </scstep>
  <scstep>
   <time name="dav">    0.01    0.01</time>
   <time name="total">    0.04    0.04</time>
   <energy>
    <i name="alphaZ">      0.87564028 </i>
    <i name="ewald">    -29.68189100 </i>
    <i name="hartreedc">   -370.61898553 </i>
    <i name="XCdc">     33.57979797 </i>
    <i name="pawpsdc">    311.75639932 </i>
    <i name="pawaedc">   -313.80427283 </i>
    <i name="eentropy">     -0.00000000 </i>
    <i name="bandstr">   -103.31286572 </i>
    <i name="atom">    457.22046137 </i>
    <i name="e_fr_energy">    -13.98571614 </i>
    <i name="e_wo_entrp">    -13.98571614 </i>
    <i name="e_0_energy">    -13.98571614 </i>
   </energy>
  </scstep>
  <structure>
   <crystal>
    <varray name="basis" >
     <v>       6.35016000       0.00000000       0.00000000 </v>
     <v>       0.00000000       6.35016000       0.00000000 </v>
     <v>       0.00000000       0.00000000       6.35016000 </v>
    </varray>
    <i name="volume">    256.06723029 </i>
    <varray name="rec_basis" >
     <v>       0.15747635       0.00000000       0.00000000 </v>
     <v>       0.00000000       0.15747635       0.00000000 </v>
     <v>       0.00000000       0.00000000       0.15747635 </v>
    </varray>
   </crystal>
   <varray name="positions" >
    <v>       0.99637458       0.00473238       0.00000000 </v>
    <v>       0.08809701       0.86417641       0.00000000 </v>
    <v>       0.09917313       0.12826100       0.00000000 </v>
   </varray>
  </structure>
  <varray name="forces" >
   <v>       2.48848345      -1.24762671      -0.00000000 </v>
   <v>      -1.52246190       3.04541848      -0.00000000 </v>
   <v>      -0.96692427      -1.79810935      -0.00000000 </v>
  </varray>
  <energy>
   <i name="e_fr_energy">    -13.98571614 </i>
   <i name="e_wo_entrp">    -13.98571614 </i>
   <i name="e_0_energy">     -0.00000000 </i>
   <i name="kinetic">      0.36279863 </i>
   <i name="lattice kinetic">      0.00000000 </i>
   <i name="nosepot">      0.00000000 </i>
   <i name="nosekinetic">      0.00000000 </i>
   <i name="total">    -13.62291751 </i>
  </energy>
  <time name="totalsc">    0.17    0.17</time>
 </calculation>
 <calculation>
  <scstep>
   <time name="dav">    0.01    0.01</time>
   <time name="total">    0.04    0.04</time>
   <energy>
    <i name="alphaZ">      0.87564028 </i>
    <i name="ewald">    -31.52761106 </i>
    <i name="hartreedc">   -369.40865244 </i>
    <i name="XCdc">     33.51765903 </i>
    <i name="pawpsdc">    312.23090835 </i>
    <i name="pawaedc">   -314.27735304 </i>
    <i name="eentropy">     -0.00000000 </i>
    <i name="bandstr">   -102.54416896 </i>
    <i name="atom">    457.22046137 </i>
    <i name="e_fr_energy">    -13.91311647 </i>
    <i name="e_wo_entrp">    -13.91311647 </i>
    <i name="e_0_energy">    -13.91311647 </i>
   </energy>
  </scstep>
  <scstep>
   <time name="dav">    0.01    0.01</time>
   <time name="total">    0.04    0.04</time>
   <energy>
    <i name="e_fr_energy">    -13.91409315 </i>
    <i name="e_wo_entrp">    -13.91409315 </i>
    <i name="e_0_energy">    -13.91409315 </i>
   </energy>
  </scstep>
  <scstep>
   <time name="dav">    0.01    0.01</time>
   <time name="total">    0.04    0.04</time>
   <energy>
    <i name="e_fr_energy">    -13.91396652 </i>
    <i name="e_wo_entrp">    -13.91396652 </i>
    <i name="e_0_energy">    -13.91396652 </i>
   </energy>
  </scstep>
  <scstep>
   <time name="dav">    0.01    0.01</time>
   <time name="total">    0.04    0.04</time>
   <energy>
    <i name="alphaZ">      0.87564028 </i>
    <i name="ewald">    -31.52761106 </i>
    <i name="hartreedc">   -369.16424836 </i>
    <i name="XCdc">     33.50596359 </i>
    <i name="pawpsdc">    310.34263949 </i>
    <i name="pawaedc">   -312.38220237 </i>
    <i name="eentropy">     -0.00000000 </i>
    <i name="bandstr">   -102.78463221 </i>
    <i name="atom">    457.22046137 </i>
    <i name="e_fr_energy">    -13.91398926 </i>
    <i name="e_wo_entrp">    -13.91398926 </i>
    <i name="e_0_energy">    -13.91398926 </i>
   </energy>
  </scstep>
  <structure>
   <crystal>
    <varray name="basis" >
     <v>       6.35016000       0.00000000       0.00000000 </v>
     <v>       0.00000000       6.35016000       0.00000000 </v>
     <v>       0.00000000       0.00000000       6.35016000 </v>
    </varray>
    <i name="volume">    256.06723029 </i>
    <varray name="rec_basis" >
     <v>       0.15747635       0.00000000       0.00000000 </v>
     <v>       0.00000000       0.15747635       0.00000000 </v>
     <v>       0.00000000       0.00000000       0.15747635 </v>
    </varray>
   </crystal>
   <varray name="positions" >
    <v>       0.99486128       0.00693636       0.00000000 </v>
    <v>       0.08327195       0.86182783       0.00000000 </v>
    <v>       0.10117676       0.12942136       0.00000000 </v>
   </varray>
  </structure>
  <varray name="forces" >
   <v>       2.71412902      -1.33674857       0.00000000 </v>
   <v>      -1.54399169       3.38688543      -0.00000000 </v>
   <v>      -1.16211600      -2.05455072       0.00000000 </v>
  </varray>
  <energy>
   <i name="e_fr_energy">    -13.91398926 </i>
   <i name="e_wo_entrp">    -13.91398926 </i>
   <i name="e_0_energy">     -0.00000000 </i>
   <i name="kinetic">      0.29551738 </i>
   <i name="lattice kinetic">      0.00000000 </i>
   <i name="nosepot">      0.00000000 </i>
   <i name="nosekinetic">      0.00000000 </i>
   <i name="total">    -13.61847189 </i>
  </energy>
  <time name="totalsc">    0.21    0.21</time>
 </calculation>
 <calculation>
  <scstep>
   <time name="dav">    0.01    0.01</time>
   <time name="total">    0.04    0.04</time>
   <energy>
    <i name="alphaZ">      0.87564028 </i>
    <i name="ewald">    -28.65210770 </i>
    <i name="hartreedc">   -371.60163643 </i>
    <i name="XCdc">     33.62909738 </i>
    <i name="pawpsdc">    314.71940913 </i>
    <i name="pawaedc">   -316.77809074 </i>
    <i name="eentropy">     -0.00000000 </i>
    <i name="bandstr">   -103.43076801 </i>
    <i name="atom">    457.22046137 </i>
    <i name="e_fr_energy">    -14.01799473 </i>
    <i name="e_wo_entrp">    -14.01799473 </i>
    <i name="e_0_energy">    -14.01799473 </i>
   </energy>
  </scstep>
  <scstep>
   <time name="dav">    0.01    0.01</time>
   <time name="total">    0.04    0.04</time>
   <energy>
    <i name="e_fr_energy">    -14.01820705 </i>
    <i name="e_wo_entrp">    -14.01820705 </i>
    <i name="e_0_energy">    -14.01820705 </i>
   </energy>
  </scstep>
  <scstep>
   <time name="dav">    0.01    0.01</time>
   <time name="total">    0.03    0.03</time>
   <energy>
    <i name="alphaZ">      0.87564028 </i>
    <i name="ewald">    -28.65210770 </i>
    <i name="hartreedc">   -371.51050963 </i>
    <i name="XCdc">     33.62402196 </i>
    <i name="pawpsdc">    314.01324716 </i>
    <i name="pawaedc">   -316.07016937 </i>
    <i name="eentropy">     -0.00000000 </i>
    <i name="bandstr">   -103.51883842 </i>
    <i name="atom">    457.22046137 </i>
    <i name="e_fr_energy">    -14.01825435 </i>
    <i name="e_wo_entrp">    -14.01825435 </i>
    <i name="e_0_energy">    -14.01825435 </i>
   </energy>
  </scstep>
  <structure>
   <crystal>
    <varray name="basis" >
     <v>       6.35016000       0.00000000       0.00000000 </v>
     <v>       0.00000000       6.35016000       0.00000000 </v>
     <v>       0.00000000       0.00000000       6.35016000 </v>
    </varray>
    <i name="volume">    256.06723029 </i>
    <varray name="rec_basis" >
     <v>       0.15747635       0.00000000       0.00000000 </v>
     <v>       0.00000000       0.15747635       0.00000000 </v>
     <v>       0.00000000       0.00000000       0.15747635 </v>
    </varray>
   </crystal>
   <varray name="positions" >
    <v>       0.99360573       0.00901340       0.00000000 </v>
    <v>       0.07610093       0.86462534       0.00000000 </v>
    <v>       0.10141466       0.12746002       0.00000000 </v>
   </varray>
  </structure>
  <varray name="forces" >
   <v>       2.14652841      -1.23402376      -0.00000000 </v>
   <v>      -1.19413456       2.94643060      -0.00000000 </v>
   <v>      -0.94908052      -1.70887736       0.00000000 </v>
  </varray>
  <energy>
   <i name="e_fr_energy">    -14.01825435 </i>
   <i name="e_wo_entrp">    -14.01825435 </i>
   <i name="e_0_energy">     -0.00000000 </i>
   <i name="kinetic">      0.39276730 </i>
   <i name="lattice kinetic">      0.00000000 </i>
   <i name="nosepot">      0.00000000 </i>
   <i name="nosekinetic">      0.00000000 </i>
   <i name="total">    -13.62548705 </i>
  </energy>
  <time name="totalsc">    0.16    0.16</time>
 </calculation>
 <calculation>
  <scstep>
   <time name="dav">    0.01    0.01</time>
   <time name="total">    0.04    0.04</time>
   <energy>
    <i name="alphaZ">      0.87564028 </i>
    <i name="ewald">    -21.37260163 </i>
    <i name="hartreedc">   -377.20941243 </i>
    <i name="XCdc">     33.91478221 </i>
    <i name="pawpsdc">    322.23403912 </i>
    <i name="pawaedc">   -324.33366196 </i>
    <i name="eentropy">     -0.00000000 </i>
    <i name="bandstr">   -105.51428113 </i>
    <i name="atom">    457.22046137 </i>
    <i name="e_fr_energy">    -14.18503417 </i>
    <i name="e_wo_entrp">    -14.18503417 </i>
    <i name="e_0_energy">    -14.18503417 </i>
   </energy>
  </scstep>
  <scstep>
   <time name="dav">    0.01    0.01</time>
   <time name="total">    0.04    0.04</time>
   <energy>
    <i name="e_fr_energy">    -14.18594593 </i>
    <i name="e_wo_entrp">    -14.18594593 </i>
    <i name="e_0_energy">    -14.18594593 </i>
   </energy>
  </scstep>
  <scstep>
   <time name="dav">    0.01    0.01</time>
   <time name="total">    0.04    0.04</time>
   <energy>
    <i name="alphaZ">      0.87564028 </i>
    <i name="ewald">    -21.37260163 </i>
    <i name="hartreedc">   -377.28102254 </i>
    <i name="XCdc">     33.91901578 </i>
    <i name="pawpsdc">    322.75092609 </i>
    <i name="pawaedc">   -324.85002055 </i>
    <i name="eentropy">     -0.00000000 </i>
    <i name="bandstr">   -105.44832167 </i>
    <i name="atom">    457.22046137 </i>
    <i name="e_fr_energy">    -14.18592287 </i>
    <i name="e_wo_entrp">    -14.18592287 </i>
    <i name="e_0_energy">    -14.18592287 </i>
   </energy>
  </scstep>
  <structure>
   <crystal>
    <varray name="basis" >
     <v>       6.35016000       0.00000000       0.00000000 </v>
     <v>       0.00000000       6.35016000       0.00000000 </v>
     <v>       0.00000000       0.00000000       6.35016000 </v>
    </varray>
    <i name="volume">    256.06723029 </i>
    <varray name="rec_basis" >
     <v>       0.15747635       0.00000000       0.00000000 </v>
     <v>       0.00000000       0.15747635       0.00000000 </v>
     <v>       0.00000000       0.00000000       0.15747635 </v>
    </varray>
   </crystal>
   <varray name="positions" >
    <v>       0.99255401       0.01097325       0.00000000 </v>
    <v>       0.06711552       0.87189970       0.00000000 </v>
    <v>       0.10021051       0.12290217       0.00000000 </v>
   </varray>
  </structure>
  <varray name="forces" >
   <v>       0.64388436      -0.64197209      -0.00000000 </v>
   <v>      -0.38700402       1.40839152       0.00000000 </v>
   <v>      -0.25983786      -0.75891872      -0.00000000 </v>
  </varray>
  <energy>
   <i name="e_fr_energy">    -14.18592287 </i>
   <i name="e_wo_entrp">    -14.18592287 </i>
   <i name="e_0_energy">     -0.00000000 </i>
   <i name="kinetic">      0.54395185 </i>
   <i name="lattice kinetic">      0.00000000 </i>
   <i name="nosepot">      0.00000000 </i>
   <i name="nosekinetic">      0.00000000 </i>
   <i name="total">    -13.64197102 </i>
  </energy>
  <time name="totalsc">    0.16    0.16</time>
 </calculation>
 <calculation>
  <scstep>
   <time name="dav">    0.01    0.01</time>
   <time name="total">    0.04    0.04</time>
   <energy>
    <i name="alphaZ">      0.87564028 </i>
    <i name="ewald">    -11.39872808 </i>
    <i name="hartreedc">   -384.76876887 </i>
    <i name="XCdc">     34.30864694 </i>
    <i name="pawpsdc">    335.73487906 </i>
    <i name="pawaedc">   -337.89474789 </i>
    <i name="eentropy">     -0.00000000 </i>
    <i name="bandstr">   -108.24603053 </i>
    <i name="atom">    457.22046137 </i>
    <i name="e_fr_energy">    -14.16864773 </i>
    <i name="e_wo_entrp">    -14.16864773 </i>
    <i name="e_0_energy">    -14.16864773 </i>
   </energy>
  </scstep>
  <scstep>
   <time name="dav">    0.01    0.01</time>
   <time name="total">    0.04    0.04</time>
   <energy>
    <i name="e_fr_energy">    -14.16986732 </i>
    <i name="e_wo_entrp">    -14.16986732 </i>
    <i name="e_0_energy">    -14.16986732 </i>
   </energy>
  </scstep>
  <scstep>
   <time name="dav">    0.01    0.01</time>
   <time name="total">    0.04    0.04</time>
   <energy>
    <i name="e_fr_energy">    -14.16988675 </i>
    <i name="e_wo_entrp">    -14.16988675 </i>
    <i name="e_0_energy">    -14.16988675 </i>
   </energy>
  </scstep>
  <scstep>
   <time name="dav">    0.01    0.01</time>
   <time name="total">    0.03    0.03</time>
   <energy>
    <i name="alphaZ">      0.87564028 </i>
    <i name="ewald">    -11.39872808 </i>
    <i name="hartreedc">   -385.00844217 </i>
    <i name="XCdc">     34.31927874 </i>
    <i name="pawpsdc">    337.67784568 </i>
    <i name="pawaedc">   -339.84504644 </i>
    <i name="eentropy">     -0.00000000 </i>
    <i name="bandstr">   -108.01089261 </i>
    <i name="atom">    457.22046137 </i>
    <i name="e_fr_energy">    -14.16988323 </i>
    <i name="e_wo_entrp">    -14.16988323 </i>
    <i name="e_0_energy">    -14.16988323 </i>
   </energy>
  </scstep>
  <structure>
   <crystal>
    <varray name="basis" >
     <v>       6.35016000       0.00000000       0.00000000 </v>
     <v>       0.00000000       6.35016000       0.00000000 </v>
     <v>       0.00000000       0.00000000       6.35016000 </v>
    </varray>
    <i name="volume">    256.06723029 </i>
    <varray name="rec_basis" >
     <v>       0.15747635       0.00000000       0.00000000 </v>
     <v>       0.00000000       0.15747635       0.00000000 </v>
     <v>       0.00000000       0.00000000       0.15747635 </v>
    </varray>
   </crystal>
   <varray name="positions" >
    <v>       0.99156344       0.01287213       0.00000000 </v>
    <v>       0.05754209       0.88131399       0.00000000 </v>
    <v>       0.09861155       0.11719122       0.00000000 </v>
   </varray>
  </structure>
  <varray name="forces" >
   <v>      -1.95479304       1.07327824      -0.00000000 </v>
   <v>       1.03746004      -1.74220388       0.00000000 </v>
   <v>       0.91329116       0.67286326       0.00000000 </v>
  </varray>
  <energy>
   <i name="e_fr_energy">    -14.16988323 </i>
   <i name="e_wo_entrp">    -14.16988323 </i>
   <i name="e_0_energy">     -0.00000000 </i>
   <i name="kinetic">      0.52264307 </i>
   <i name="lattice kinetic">      0.00000000 </i>
   <i name="nosepot">      0.00000000 </i>
   <i name="nosekinetic">      0.00000000 </i>
   <i name="total">    -13.64724016 </i>
  </energy>
  <time name="totalsc">    0.20    0.20</time>
 </calculation>
 <calculation>
  <scstep>
   <time name="dav">    0.01    0.01</time>
   <time name="total">    0.04    0.04</time>
   <energy>
    <i name="alphaZ">      0.87564028 </i>
    <i name="ewald">     -3.89275009 </i>
    <i name="hartreedc">   -390.35617445 </i>
    <i name="XCdc">     34.60481546 </i>
    <i name="pawpsdc">    347.90809787 </i>
    <i name="pawaedc">   -350.12290245 </i>
    <i name="eentropy">     -0.00000000 </i>
    <i name="bandstr">   -110.19061464 </i>
    <i name="atom">    457.22046137 </i>
    <i name="e_fr_energy">    -13.95342666 </i>
    <i name="e_wo_entrp">    -13.95342666 </i>
    <i name="e_0_energy">    -13.95342666 </i>
   </energy>
  </scstep>
  <scstep>
   <time name="dav">    0.01    0.01</time>
   <time name="total">    0.04    0.05</time>
   <energy>
    <i name="e_fr_energy">    -13.95382320 </i>
    <i name="e_wo_entrp">    -13.95382320 </i>
    <i name="e_0_energy">    -13.95382320 </i>
   </energy>
  </scstep>
  <scstep>
   <time name="dav">    0.01    0.01</time>
   <time name="total">    0.04    0.04</time>
   <energy>
    <i name="e_fr_energy">    -13.95405847 </i>
    <i name="e_wo_entrp">    -13.95405847 </i>
    <i name="e_0_energy">    -13.95405847 </i>
   </energy>
  </scstep>
  <scstep>
   <time name="dav">    0.01    0.01</time>
   <time name="total">    0.04    0.04</time>
   <energy>
    <i name="e_fr_energy">    -13.95394473 </i>
    <i name="e_wo_entrp">    -13.95394473 </i>
    <i name="e_0_energy">    -13.95394473 </i>
   </energy>
  </scstep>
  <scstep>
   <time name="dav">    0.02    0.02</time>
   <time name="total">    0.04    0.04</time>
   <energy>
    <i name="alphaZ">      0.87564028 </i>
    <i name="ewald">     -3.89275009 </i>
    <i name="hartreedc">   -390.60239440 </i>
    <i name="XCdc">     34.61254466 </i>
    <i name="pawpsdc">    350.26455342 </i>
    <i name="pawaedc">   -352.48851050 </i>
    <i name="eentropy">     -0.00000000 </i>
    <i name="bandstr">   -109.94351094 </i>
    <i name="atom">    457.22046137 </i>
    <i name="e_fr_energy">    -13.95396620 </i>
    <i name="e_wo_entrp">    -13.95396620 </i>
    <i name="e_0_energy">    -13.95396620 </i>
   </energy>
  </scstep>
  <structure>
   <crystal>
    <varray name="basis" >
     <v>       6.35016000       0.00000000       0.00000000 </v>
     <v>       0.00000000       6.35016000       0.00000000 </v>
     <v>       0.00000000       0.00000000       6.35016000 </v>
    </varray>
    <i name="volume">    256.06723029 </i>
    <varray name="rec_basis" >
     <v>       0.15747635       0.00000000       0.00000000 </v>
     <v>       0.00000000       0.15747635       0.00000000 </v>
     <v>       0.00000000       0.00000000       0.15747635 </v>
    </varray>
   </crystal>
   <varray name="positions" >
    <v>       0.99038724       0.01487294       0.00000000 </v>
    <v>       0.04954500       0.88808115       0.00000000 </v>
    <v>       0.09840027       0.11250262       0.00000000 </v>
   </varray>
  </structure>
  <varray name="forces" >
   <v>      -4.30998747       3.25954896      -0.00000000 </v>
   <v>       2.32741615      -5.06744614       0.00000000 </v>
   <v>       1.97534740       1.81024412       0.00000000 </v>
  </varray>
  <energy>
   <i name="e_fr_energy">    -13.95396620 </i>
   <i name="e_wo_entrp">    -13.95396620 </i>
   <i name="e_0_energy">     -0.00000000 </i>
   <i name="kinetic">      0.34438576 </i>
   <i name="lattice kinetic">      0.00000000 </i>
   <i name="nosepot">      0.00000000 </i>
   <i name="nosekinetic">      0.00000000 </i>
   <i name="total">    -13.60958044 </i>
  </energy>
  <time name="totalsc">    0.25    0.26</time>
 </calculation>
 <calculation>
  <scstep>
   <time name="dav">    0.01    0.01</time>
   <time name="total">    0.04    0.04</time>
   <energy>
    <i name="alphaZ">      0.87564028 </i>
    <i name="ewald">     -5.45669347 </i>
    <i name="hartreedc">   -390.35509539 </i>
    <i name="XCdc">     34.59664782 </i>
    <i name="pawpsdc">    353.66321318 </i>
    <i name="pawaedc">   -355.90107059 </i>
    <i name="eentropy">     -0.00000000 </i>
    <i name="bandstr">   -108.66395224 </i>
    <i name="atom">    457.22046137 </i>
    <i name="e_fr_energy">    -14.02084905 </i>
    <i name="e_wo_entrp">    -14.02084905 </i>
    <i name="e_0_energy">    -14.02084905 </i>
   </energy>
  </scstep>
  <scstep>
   <time name="dav">    0.01    0.01</time>
   <time name="total">    0.04    0.04</time>
   <energy>
    <i name="e_fr_energy">    -14.01969250 </i>
    <i name="e_wo_entrp">    -14.01969250 </i>
    <i name="e_0_energy">    -14.01969250 </i>
   </energy>
  </scstep>
  <scstep>
   <time name="dav">    0.01    0.01</time>
   <time name="total">    0.04    0.04</time>
   <energy>
    <i name="e_fr_energy">    -14.01984563 </i>
    <i name="e_wo_entrp">    -14.01984563 </i>
    <i name="e_0_energy">    -14.01984563 </i>
   </energy>
  </scstep>
  <scstep>
   <time name="dav">    0.01    0.01</time>
   <time name="total">    0.04    0.04</time>
   <energy>
    <i name="e_fr_energy">    -14.02004011 </i>
    <i name="e_wo_entrp">    -14.02004011 </i>
    <i name="e_0_energy">    -14.02004011 </i>
   </energy>
  </scstep>
  <scstep>
   <time name="dav">    0.01    0.01</time>
   <time name="total">    0.04    0.04</time>
   <energy>
    <i name="alphaZ">      0.87564028 </i>
    <i name="ewald">     -5.45669347 </i>
    <i name="hartreedc">   -389.41522396 </i>
    <i name="XCdc">     34.54979522 </i>
    <i name="pawpsdc">    347.54203292 </i>
    <i name="pawaedc">   -349.74985752 </i>
    <i name="eentropy">     -0.00000000 </i>
    <i name="bandstr">   -109.58620573 </i>
    <i name="atom">    457.22046137 </i>
    <i name="e_fr_energy">    -14.02005089 </i>
    <i name="e_wo_entrp">    -14.02005089 </i>
    <i name="e_0_energy">    -14.02005089 </i>
   </energy>
  </scstep>
  <structure>
   <crystal>
    <varray name="basis" >
     <v>       6.35016000       0.00000000       0.00000000 </v>
     <v>       0.00000000       6.35016000       0.00000000 </v>
     <v>       0.00000000       0.00000000       6.35016000 </v>
    </varray>
    <i name="volume">    256.06723029 </i>
    <varray name="rec_basis" >
     <v>       0.15747635       0.00000000       0.00000000 </v>
     <v>       0.00000000       0.15747635       0.00000000 </v>
     <v>       0.00000000       0.00000000       0.15747635 </v>
    </varray>
   </crystal>
   <varray name="positions" >
    <v>       0.98880174       0.01718329       0.00000000 </v>
    <v>       0.04508421       0.88714876       0.00000000 </v>
    <v>       0.10119036       0.11056454       0.00000000 </v>
   </varray>
  </structure>
  <varray name="forces" >
   <v>      -3.66064901       2.63642602      -0.00000000 </v>
   <v>       1.77500146      -4.26368838      -0.00000000 </v>
   <v>       1.87944723       1.62520617      -0.00000000 </v>
  </varray>
  <energy>
   <i name="e_fr_energy">    -14.02005089 </i>
   <i name="e_wo_entrp">    -14.02005089 </i>
   <i name="e_0_energy">     -0.00000000 </i>
   <i name="kinetic">      0.39663095 </i>
   <i name="lattice kinetic">      0.00000000 </i>
   <i name="nosepot">      0.00000000 </i>
   <i name="nosekinetic">      0.00000000 </i>
   <i name="total">    -13.62341995 </i>
  </energy>
  <time name="totalsc">    0.24    0.24</time>
 </calculation>
 <calculation>
  <scstep>
   <time name="dav">    0.01    0.01</time>
   <time name="total">    0.04    0.04</time>
   <energy>
    <i name="alphaZ">      0.87564028 </i>
    <i name="ewald">    -14.48303366 </i>
    <i name="hartreedc">   -382.54346205 </i>
    <i name="XCdc">     34.19055655 </i>
    <i name="pawpsdc">    332.21308383 </i>
    <i name="pawaedc">   -334.34512194 </i>
    <i name="eentropy">     -0.00000000 </i>
    <i name="bandstr">   -107.34118800 </i>
    <i name="atom">    457.22046137 </i>
    <i name="e_fr_energy">    -14.21306361 </i>
    <i name="e_wo_entrp">    -14.21306361 </i>
    <i name="e_0_energy">    -14.21306361 </i>
   </energy>
  </scstep>
  <scstep>
   <time name="dav">    0.01    0.01</time>
   <time name="total">    0.04    0.04</time>
   <energy>
    <i name="e_fr_energy">    -14.21469740 </i>
    <i name="e_wo_entrp">    -14.21469740 </i>
    <i name="e_0_energy">    -14.21469740 </i>
   </energy>
  </scstep>
  <scstep>
   <time name="dav">    0.01    0.01</time>
   <time name="total">    0.04    0.04</time>
   <energy>
    <i name="alphaZ">      0.87564028 </i>
    <i name="ewald">    -14.48303366 </i>
    <i name="hartreedc">   -382.57773635 </i>
    <i name="XCdc">     34.19199261 </i>
    <i name="pawpsdc">    332.70983242 </i>
    <i name="pawaedc">   -334.84826878 </i>
    <i name="eentropy">     -0.00000000 </i>
    <i name="bandstr">   -107.30359627 </i>
    <i name="atom">    457.22046137 </i>
    <i name="e_fr_energy">    -14.21470837 </i>
    <i name="e_wo_entrp">    -14.21470837 </i>
    <i name="e_0_energy">    -14.21470837 </i>
   </energy>
  </scstep>
  <structure>
   <crystal>
    <varray name="basis" >
     <v>       6.35016000       0.00000000       0.00000000 </v>
     <v>       0.00000000       6.35016000       0.00000000 </v>
     <v>       0.00000000       0.00000000       6.35016000 </v>
    </varray>
    <i name="volume">    256.06723029 </i>
    <varray name="rec_basis" >
     <v>       0.15747635       0.00000000       0.00000000 </v>
     <v>       0.00000000       0.15747635       0.00000000 </v>
     <v>       0.00000000       0.00000000       0.15747635 </v>
    </varray>
   </crystal>
   <varray name="positions" >
    <v>       0.98686862       0.01974400       0.00000000 </v>
    <v>       0.04332040       0.87973805       0.00000000 </v>
    <v>       0.10683611       0.11109582       0.00000000 </v>
   </varray>
  </structure>
  <varray name="forces" >
   <v>      -0.90233667       0.18329232       0.00000000 </v>
   <v>       0.27871832      -0.61704501       0.00000000 </v>
   <v>       0.62204017       0.41670350       0.00000000 </v>
  </varray>
  <energy>
   <i name="e_fr_energy">    -14.21470837 </i>
   <i name="e_wo_entrp">    -14.21470837 </i>
   <i name="e_0_energy">     -0.00000000 </i>
   <i name="kinetic">      0.56577702 </i>
   <i name="lattice kinetic">      0.00000000 </i>
   <i name="nosepot">      0.00000000 </i>
   <i name="nosekinetic">      0.00000000 </i>
   <i name="total">    -13.64893135 </i>
  </energy>
  <time name="totalsc">    0.16    0.16</time>
 </calculation>
 <calculation>
  <scstep>
   <time name="dav">    0.01    0.01</time>
   <time name="total">    0.04    0.04</time>
   <energy>
    <i name="alphaZ">      0.87564028 </i>
    <i name="ewald">    -24.07121146 </i>
    <i name="hartreedc">   -374.84701027 </i>
    <i name="XCdc">     33.79546990 </i>
    <i name="pawpsdc">    317.18500794 </i>
    <i name="pawaedc">   -319.24532974 </i>
    <i name="eentropy">     -0.00000000 </i>
    <i name="bandstr">   -105.06542384 </i>
    <i name="atom">    457.22046137 </i>
    <i name="e_fr_energy">    -14.15239581 </i>
    <i name="e_wo_entrp">    -14.15239581 </i>
    <i name="e_0_energy">    -14.15239581 </i>
   </energy>
  </scstep>
  <scstep>
   <time name="dav">    0.01    0.01</time>
   <time name="total">    0.04    0.04</time>
   <energy>
    <i name="e_fr_energy">    -14.15344303 </i>
    <i name="e_wo_entrp">    -14.15344303 </i>
    <i name="e_0_energy">    -14.15344303 </i>
   </energy>
  </scstep>
  <scstep>
   <time name="dav">    0.02    0.02</time>
   <time name="total">    0.04    0.04</time>
   <energy>
    <i name="alphaZ">      0.87564028 </i>
    <i name="ewald">    -24.07121146 </i>
    <i name="hartreedc">   -375.06809937 </i>
    <i name="XCdc">     33.80615887 </i>
    <i name="pawpsdc">    318.54490613 </i>
    <i name="pawaedc">   -320.61473958 </i>
    <i name="eentropy">     -0.00000000 </i>
    <i name="bandstr">   -104.84655252 </i>
    <i name="atom">    457.22046137 </i>
    <i name="e_fr_energy">    -14.15343628 </i>
    <i name="e_wo_entrp">    -14.15343628 </i>
    <i name="e_0_energy">    -14.15343628 </i>
   </energy>
  </scstep>
  <structure>
   <crystal>
    <varray name="basis" >
     <v>       6.35016000       0.00000000       0.00000000 </v>
     <v>       0.00000000       6.35016000       0.00000000 </v>
     <v>       0.00000000       0.00000000       6.35016000 </v>
    </varray>
    <i name="volume">    256.06723029 </i>
    <varray name="rec_basis" >
     <v>       0.15747635       0.00000000       0.00000000 </v>
     <v>       0.00000000       0.15747635       0.00000000 </v>
     <v>       0.00000000       0.00000000       0.15747635 </v>
    </varray>
   </crystal>
   <varray name="positions" >
    <v>       0.98484980       0.02232211       0.00000000 </v>
    <v>       0.04198006       0.87138980       0.00000000 </v>
    <v>       0.11342700       0.11226024       0.00000000 </v>
   </varray>
  </structure>
  <varray name="forces" >
   <v>       1.42228294      -1.34251573      -0.00000000 </v>
   <v>      -0.65206503       2.04580886      -0.00000000 </v>
   <v>      -0.77693264      -0.70623624       0.00000000 </v>
  </varray>
  <energy>
   <i name="e_fr_energy">    -14.15343628 </i>
   <i name="e_wo_entrp">    -14.15343628 </i>
   <i name="e_0_energy">     -0.00000000 </i>
   <i name="kinetic">      0.51824641 </i>
   <i name="lattice kinetic">      0.00000000 </i>
   <i name="nosepot">      0.00000000 </i>
   <i name="nosekinetic">      0.00000000 </i>
   <i name="total">    -13.63518987 </i>
  </energy>
  <time name="totalsc">    0.34    0.34</time>
 </calculation>
 <calculation>
  <scstep>
   <time name="dav">    0.01    0.01</time>
   <time name="total">    0.04    0.04</time>
   <energy>
    <i name="alphaZ">      0.87564028 </i>
    <i name="ewald">    -30.27345467 </i>
    <i name="hartreedc">   -369.69163187 </i>
    <i name="XCdc">     33.53711518 </i>
    <i name="pawpsdc">    307.19097502 </i>
    <i name="pawaedc">   -309.20093332 </i>
    <i name="eentropy">     -0.00000000 </i>
    <i name="bandstr">   -103.64112445 </i>
    <i name="atom">    457.22046137 </i>
    <i name="e_fr_energy">    -13.98295245 </i>
    <i name="e_wo_entrp">    -13.98295245 </i>
    <i name="e_0_energy">    -13.98295245 </i>
   </energy>
  </scstep>
  <scstep>
   <time name="dav">    0.01    0.01</time>
   <time name="total">    0.04    0.04</time>
   <energy>
    <i name="e_fr_energy">    -13.98306515 </i>
    <i name="e_wo_entrp">    -13.98306515 </i>
    <i name="e_0_energy">    -13.98306515 </i>
   </energy>
  </scstep>
  <scstep>
   <time name="dav">    0.01    0.01</time>
   <time name="total">    0.04    0.04</time>
   <energy>
    <i name="alphaZ">      0.87564028 </i>
    <i name="ewald">    -30.27345467 </i>
    <i name="hartreedc">   -370.04723832 </i>
    <i name="XCdc">     33.55249050 </i>
    <i name="pawpsdc">    310.13485776 </i>
    <i name="pawaedc">   -312.16234949 </i>
    <i name="eentropy">     -0.00000000 </i>
    <i name="bandstr">   -103.28345807 </i>
    <i name="atom">    457.22046137 </i>
    <i name="e_fr_energy">    -13.98305064 </i>
    <i name="e_wo_entrp">    -13.98305064 </i>
    <i name="e_0_energy">    -13.98305064 </i>
   </energy>
  </scstep>
  <structure>
   <crystal>
    <varray name="basis" >
     <v>       6.35016000       0.00000000       0.00000000 </v>
     <v>       0.00000000       6.35016000       0.00000000 </v>
     <v>       0.00000000       0.00000000       6.35016000 </v>
    </varray>
    <i name="volume">    256.06723029 </i>
    <varray name="rec_basis" >
     <v>       0.15747635       0.00000000       0.00000000 </v>
     <v>       0.00000000       0.15747635       0.00000000 </v>
     <v>       0.00000000       0.00000000       0.15747635 </v>
    </varray>
   </crystal>
   <varray name="positions" >
    <v>       0.98296606       0.02477274       0.00000000 </v>
    <v>       0.03964898       0.86614997       0.00000000 </v>
    <v>       0.11883740       0.11235160       0.00000000 </v>
   </varray>
  </structure>
  <varray name="forces" >
   <v>       2.69536517      -1.96272640      -0.00000000 </v>
   <v>      -1.01598740       3.24102958       0.00000000 </v>
   <v>      -1.68854926      -1.27592069      -0.00000000 </v>
  </varray>
  <energy>
   <i name="e_fr_energy">    -13.98305064 </i>
   <i name="e_wo_entrp">    -13.98305064 </i>
   <i name="e_0_energy">     -0.00000000 </i>
   <i name="kinetic">      0.36233753 </i>
   <i name="lattice kinetic">      0.00000000 </i>
   <i name="nosepot">      0.00000000 </i>
   <i name="nosekinetic">      0.00000000 </i>
   <i name="total">    -13.62071311 </i>
  </energy>
  <time name="totalsc">    0.16    0.16</time>
 </calculation>
 <calculation>
  <scstep>
   <time name="dav">    0.01    0.01</time>
   <time name="total">    0.04    0.04</time>
   <energy>
    <i name="alphaZ">      0.87564028 </i>
    <i name="ewald">    -31.91185581 </i>
    <i name="hartreedc">   -369.02183135 </i>
    <i name="XCdc">     33.49985579 </i>
    <i name="pawpsdc">    311.23126425 </i>
    <i name="pawaedc">   -313.25903727 </i>
    <i name="eentropy">     -0.00000000 </i>
    <i name="bandstr">   -102.55942938 </i>
    <i name="atom">    457.22046137 </i>
    <i name="e_fr_energy">    -13.92493213 </i>
    <i name="e_wo_entrp">    -13.92493213 </i>
    <i name="e_0_energy">    -13.92493213 </i>
   </energy>
  </scstep>
  <scstep>
   <time name="dav">    0.01    0.01</time>
   <time name="total">    0.04    0.04</time>
   <energy>
    <i name="e_fr_energy">    -13.92492025 </i>
    <i name="e_wo_entrp">    -13.92492025 </i>
    <i name="e_0_energy">    -13.92492025 </i>
   </energy>
  </scstep>
  <scstep>
   <time name="dav">    0.02    0.02</time>
   <time name="total">    0.05    0.05</time>
   <energy>
    <i name="e_fr_energy">    -13.92480695 </i>
    <i name="e_wo_entrp">    -13.92480695 </i>
    <i name="e_0_energy">    -13.92480695 </i>
   </energy>
  </scstep>
  <scstep>
   <time name="dav">    0.02    0.02</time>
   <time name="total">    0.04    0.04</time>
   <energy>
    <i name="alphaZ">      0.87564028 </i>
    <i name="ewald">    -31.91185581 </i>
    <i name="hartreedc">   -368.68883295 </i>
    <i name="XCdc">     33.48338777 </i>
    <i name="pawpsdc">    308.99506143 </i>
    <i name="pawaedc">   -311.01019285 </i>
    <i name="eentropy">     -0.00000000 </i>
    <i name="bandstr">   -102.88848367 </i>
    <i name="atom">    457.22046137 </i>
    <i name="e_fr_energy">    -13.92481443 </i>
    <i name="e_wo_entrp">    -13.92481443 </i>
    <i name="e_0_energy">    -13.92481443 </i>
   </energy>
  </scstep>
  <structure>
   <crystal>
    <varray name="basis" >
     <v>       6.35016000       0.00000000       0.00000000 </v>
     <v>       0.00000000       6.35016000       0.00000000 </v>
     <v>       0.00000000       0.00000000       6.35016000 </v>
    </varray>
    <i name="volume">    256.06723029 </i>
    <varray name="rec_basis" >
     <v>       0.15747635       0.00000000       0.00000000 </v>
     <v>       0.00000000       0.15747635       0.00000000 </v>
     <v>       0.00000000       0.00000000       0.15747635 </v>
    </varray>
   </crystal>
   <varray name="positions" >
    <v>       0.98133827       0.02703698       0.00000000 </v>
    <v>       0.03577418       0.86583462       0.00000000 </v>
    <v>       0.12168220       0.11050431       0.00000000 </v>
   </varray>
  </structure>
  <varray name="forces" >
   <v>       3.09720474      -2.12437796      -0.00000000 </v>
   <v>      -1.06817719       3.44580370      -0.00000000 </v>
   <v>      -2.01389776      -1.32838496       0.00000000 </v>
  </varray>
  <energy>
   <i name="e_fr_energy">    -13.92481443 </i>
   <i name="e_wo_entrp">    -13.92481443 </i>
   <i name="e_0_energy">     -0.00000000 </i>
   <i name="kinetic">      0.30742081 </i>
   <i name="lattice kinetic">      0.00000000 </i>
   <i name="nosepot">      0.00000000 </i>
   <i name="nosekinetic">      0.00000000 </i>
   <i name="total">    -13.61739362 </i>
  </energy>
  <time name="totalsc">    0.22    0.22</time>
 </calculation>
 <calculation>
  <scstep>
   <time name="dav">    0.01    0.01</time>
   <time name="total">    0.04    0.04</time>
   <energy>
    <i name="alphaZ">      0.87564028 </i>
    <i name="ewald">    -28.81585968 </i>
    <i name="hartreedc">   -371.17251776 </i>
    <i name="XCdc">     33.60794863 </i>
    <i name="pawpsdc">    313.45324553 </i>
    <i name="pawaedc">   -315.48178321 </i>
    <i name="eentropy">     -0.00000000 </i>
    <i name="bandstr">   -103.72425281 </i>
    <i name="atom">    457.22046137 </i>
    <i name="e_fr_energy">    -14.03711764 </i>
    <i name="e_wo_entrp">    -14.03711764 </i>
    <i name="e_0_energy">    -14.03711764 </i>
   </energy>
  </scstep>
  <scstep>
   <time name="dav">    0.01    0.01</time>
   <time name="total">    0.04    0.04</time>
   <energy>
    <i name="e_fr_energy">    -14.03734897 </i>
    <i name="e_wo_entrp">    -14.03734897 </i>
    <i name="e_0_energy">    -14.03734897 </i>
   </energy>
  </scstep>
  <scstep>
   <time name="dav">    0.02    0.02</time>
   <time name="total">    0.04    0.04</time>
   <energy>
    <i name="alphaZ">      0.87564028 </i>
    <i name="ewald">    -28.81585968 </i>
    <i name="hartreedc">   -371.20563291 </i>
    <i name="XCdc">     33.60992058 </i>
    <i name="pawpsdc">    312.83696455 </i>
    <i name="pawaedc">   -314.86617193 </i>
    <i name="eentropy">     -0.00000000 </i>
    <i name="bandstr">   -103.69275761 </i>
    <i name="atom">    457.22046137 </i>
    <i name="e_fr_energy">    -14.03743535 </i>
    <i name="e_wo_entrp">    -14.03743535 </i>
    <i name="e_0_energy">    -14.03743535 </i>
   </energy>
  </scstep>
  <structure>
   <crystal>
    <varray name="basis" >
     <v>       6.35016000       0.00000000       0.00000000 </v>
     <v>       0.00000000       6.35016000       0.00000000 </v>
     <v>       0.00000000       0.00000000       6.35016000 </v>
    </varray>
    <i name="volume">    256.06723029 </i>
    <varray name="rec_basis" >
     <v>       0.15747635       0.00000000       0.00000000 </v>
     <v>       0.00000000       0.15747635       0.00000000 </v>
     <v>       0.00000000       0.00000000       0.15747635 </v>
    </varray>
   </crystal>
   <varray name="positions" >
    <v>       0.98000461       0.02909948       0.00000000 </v>
    <v>       0.03027638       0.87075488       0.00000000 </v>
    <v>       0.12146705       0.10663864       0.00000000 </v>
   </varray>
  </structure>
  <varray name="forces" >
   <v>       2.67560166      -1.85162456      -0.00000000 </v>
   <v>      -0.91648405       2.81029727      -0.00000000 </v>
   <v>      -1.74881012      -0.95139960      -0.00000000 </v>
  </varray>
  <energy>
   <i name="e_fr_energy">    -14.03743535 </i>
   <i name="e_wo_entrp">    -14.03743535 </i>
   <i name="e_0_energy">     -0.00000000 </i>
   <i name="kinetic">      0.41220593 </i>
   <i name="lattice kinetic">      0.00000000 </i>
   <i name="nosepot">      0.00000000 </i>
   <i name="nosekinetic">      0.00000000 </i>
   <i name="total">    -13.62522941 </i>
  </energy>
  <time name="totalsc">    0.17    0.17</time>
 </calculation>
 <calculation>
  <scstep>
   <time name="dav">    0.01    0.01</time>
   <time name="total">    0.04    0.04</time>
   <energy>
    <i name="alphaZ">      0.87564028 </i>
    <i name="ewald">    -21.35085174 </i>
    <i name="hartreedc">   -376.99948327 </i>
    <i name="XCdc">     33.90503224 </i>
    <i name="pawpsdc">    321.20692782 </i>
    <i name="pawaedc">   -323.27545791 </i>
    <i name="eentropy">     -0.00000000 </i>
    <i name="bandstr">   -105.77738009 </i>
    <i name="atom">    457.22046137 </i>
    <i name="e_fr_energy">    -14.19511129 </i>
    <i name="e_wo_entrp">    -14.19511129 </i>
    <i name="e_0_energy">    -14.19511129 </i>
   </energy>
  </scstep>
  <scstep>
   <time name="dav">    0.02    0.02</time>
   <time name="total">    0.04    0.04</time>
   <energy>
    <i name="e_fr_energy">    -14.19627859 </i>
    <i name="e_wo_entrp">    -14.19627859 </i>
    <i name="e_0_energy">    -14.19627859 </i>
   </energy>
  </scstep>
  <scstep>
   <time name="dav">    0.02    0.02</time>
   <time name="total">    0.04    0.04</time>
   <energy>
    <i name="alphaZ">      0.87564028 </i>
    <i name="ewald">    -21.35085174 </i>
    <i name="hartreedc">   -377.06744952 </i>
    <i name="XCdc">     33.90896921 </i>
    <i name="pawpsdc">    321.68736602 </i>
    <i name="pawaedc">   -323.75476274 </i>
    <i name="eentropy">     -0.00000000 </i>
    <i name="bandstr">   -105.71563529 </i>
    <i name="atom">    457.22046137 </i>
    <i name="e_fr_energy">    -14.19626241 </i>
    <i name="e_wo_entrp">    -14.19626241 </i>
    <i name="e_0_energy">    -14.19626241 </i>
   </energy>
  </scstep>
  <structure>
   <crystal>
    <varray name="basis" >
     <v>       6.35016000       0.00000000       0.00000000 </v>
     <v>       0.00000000       6.35016000       0.00000000 </v>
     <v>       0.00000000       0.00000000       6.35016000 </v>
    </varray>
    <i name="volume">    256.06723029 </i>
    <varray name="rec_basis" >
     <v>       0.15747635       0.00000000       0.00000000 </v>
     <v>       0.00000000       0.15747635       0.00000000 </v>
     <v>       0.00000000       0.00000000       0.15747635 </v>
    </varray>
   </crystal>
   <varray name="positions" >
    <v>       0.97892503       0.03098614       0.00000000 </v>
    <v>       0.02338606       0.87994514       0.00000000 </v>
    <v>       0.11859473       0.10132741       0.00000000 </v>
   </varray>
  </structure>
  <varray name="forces" >
   <v>       1.36408289      -0.82392567      -0.00000000 </v>
   <v>      -0.52890292       1.01601329      -0.00000000 </v>
   <v>      -0.82651731      -0.18811270       0.00000000 </v>
  </varray>
  <energy>
   <i name="e_fr_energy">    -14.19626241 </i>
   <i name="e_wo_entrp">    -14.19626241 </i>
   <i name="e_0_energy">     -0.00000000 </i>
   <i name="kinetic">      0.55483045 </i>
   <i name="lattice kinetic">      0.00000000 </i>
   <i name="nosepot">      0.00000000 </i>
   <i name="nosekinetic">      0.00000000 </i>
   <i name="total">    -13.64143196 </i>
  </energy>
  <time name="totalsc">    0.17    0.17</time>
 </calculation>
 <calculation>
  <scstep>
   <time name="dav">    0.01    0.01</time>
   <time name="total">    0.04    0.04</time>
   <energy>
    <i name="alphaZ">      0.87564028 </i>
    <i name="ewald">    -11.33640121 </i>
    <i name="hartreedc">   -384.56039421 </i>
    <i name="XCdc">     34.29778443 </i>
    <i name="pawpsdc">    334.36685606 </i>
    <i name="pawaedc">   -336.49096777 </i>
    <i name="eentropy">     -0.00000000 </i>
    <i name="bandstr">   -108.53096116 </i>
    <i name="atom">    457.22046137 </i>
    <i name="e_fr_energy">    -14.15798221 </i>
    <i name="e_wo_entrp">    -14.15798221 </i>
    <i name="e_0_energy">    -14.15798221 </i>
   </energy>
  </scstep>
  <scstep>
   <time name="dav">    0.01    0.01</time>
   <time name="total">    0.04    0.04</time>
   <energy>
    <i name="e_fr_energy">    -14.15915368 </i>
    <i name="e_wo_entrp">    -14.15915368 </i>
    <i name="e_0_energy">    -14.15915368 </i>
   </energy>
  </scstep>
  <scstep>
   <time name="dav">    0.01    0.01</time>
   <time name="total">    0.04    0.04</time>
   <energy>
    <i name="alphaZ">      0.87564028 </i>
    <i name="ewald">    -11.33640121 </i>
    <i name="hartreedc">   -384.95512074 </i>
    <i name="XCdc">     34.31716042 </i>
    <i name="pawpsdc">    336.57919465 </i>
    <i name="pawaedc">   -338.71416239 </i>
    <i name="eentropy">     -0.00000000 </i>
    <i name="bandstr">   -108.14596566 </i>
    <i name="atom">    457.22046137 </i>
    <i name="e_fr_energy">    -14.15919329 </i>
    <i name="e_wo_entrp">    -14.15919329 </i>
    <i name="e_0_energy">    -14.15919329 </i>
   </energy>
  </scstep>
  <structure>
   <crystal>
    <varray name="basis" >
     <v>       6.35016000       0.00000000       0.00000000 </v>
     <v>       0.00000000       6.35016000       0.00000000 </v>
     <v>       0.00000000       0.00000000       6.35016000 </v>
    </varray>
    <i name="volume">    256.06723029 </i>
    <varray name="rec_basis" >
     <v>       0.15747635       0.00000000       0.00000000 </v>
     <v>       0.00000000       0.15747635       0.00000000 </v>
     <v>       0.00000000       0.00000000       0.15747635 </v>
    </varray>
   </crystal>
   <varray name="positions" >
    <v>       0.97797498       0.03279456       0.00000000 </v>
    <v>       0.01569212       0.89067915       0.00000000 </v>
    <v>       0.11446659       0.09573035       0.00000000 </v>
   </varray>
  </structure>
  <varray name="forces" >
   <v>      -0.93474266       1.52867026      -0.00000000 </v>
   <v>       0.14379027      -2.38811622      -0.00000000 </v>
   <v>       0.80059245       0.86002714       0.00000000 </v>
  </varray>
  <energy>
   <i name="e_fr_energy">    -14.15919329 </i>
   <i name="e_wo_entrp">    -14.15919329 </i>
   <i name="e_0_energy">     -0.00000000 </i>
   <i name="kinetic">      0.51479579 </i>
   <i name="lattice kinetic">      0.00000000 </i>
   <i name="nosepot">      0.00000000 </i>
   <i name="nosekinetic">      0.00000000 </i>
   <i name="total">    -13.64439750 </i>
  </energy>
  <time name="totalsc">    0.16    0.16</time>
 </calculation>
 <calculation>
  <scstep>
   <time name="dav">    0.01    0.01</time>
   <time name="total">    0.04    0.04</time>
   <energy>
    <i name="alphaZ">      0.87564028 </i>
    <i name="ewald">     -4.14308513 </i>
    <i name="hartreedc">   -389.89302761 </i>
    <i name="XCdc">     34.58062379 </i>
    <i name="pawpsdc">    345.39956537 </i>
    <i name="pawaedc">   -347.57128788 </i>
    <i name="eentropy">     -0.00000000 </i>
    <i name="bandstr">   -110.41903295 </i>
    <i name="atom">    457.22046137 </i>
    <i name="e_fr_energy">    -13.95014276 </i>
    <i name="e_wo_entrp">    -13.95014276 </i>
    <i name="e_0_energy">    -13.95014276 </i>
   </energy>
  </scstep>
  <scstep>
   <time name="dav">    0.01    0.01</time>
   <time name="total">    0.04    0.04</time>
   <energy>
    <i name="e_fr_energy">    -13.95000887 </i>
    <i name="e_wo_entrp">    -13.95000887 </i>
    <i name="e_0_energy">    -13.95000887 </i>
   </energy>
  </scstep>
  <scstep>
   <time name="dav">    0.01    0.01</time>
   <time name="total">    0.04    0.04</time>
   <energy>
    <i name="e_fr_energy">    -13.95035619 </i>
    <i name="e_wo_entrp">    -13.95035619 </i>
    <i name="e_0_energy">    -13.95035619 </i>
   </energy>
  </scstep>
  <scstep>
   <time name="dav">    0.02    0.02</time>
   <time name="total">    0.04    0.04</time>
   <energy>
    <i name="e_fr_energy">    -13.95033226 </i>
    <i name="e_wo_entrp">    -13.95033226 </i>
    <i name="e_0_energy">    -13.95033226 </i>
   </energy>
  </scstep>
  <scstep>
   <time name="dav">    0.01    0.01</time>
   <time name="total">    0.03    0.03</time>
   <energy>
    <i name="alphaZ">      0.87564028 </i>
    <i name="ewald">     -4.14308513 </i>
    <i name="hartreedc">   -390.23664251 </i>
    <i name="XCdc">     34.59210415 </i>
    <i name="pawpsdc">    348.59465758 </i>
    <i name="pawaedc">   -350.78524348 </i>
    <i name="eentropy">     -0.00000000 </i>
    <i name="bandstr">   -110.06824623 </i>
    <i name="atom">    457.22046137 </i>
    <i name="e_fr_energy">    -13.95035398 </i>
    <i name="e_wo_entrp">    -13.95035398 </i>
    <i name="e_0_energy">    -13.95035398 </i>
   </energy>
  </scstep>
  <structure>
   <crystal>
    <varray name="basis" >
     <v>       6.35016000       0.00000000       0.00000000 </v>
     <v>       0.00000000       6.35016000       0.00000000 </v>
     <v>       0.00000000       0.00000000       6.35016000 </v>
    </varray>
    <i name="volume">    256.06723029 </i>
    <varray name="rec_basis" >
     <v>       0.15747635       0.00000000       0.00000000 </v>
     <v>       0.00000000       0.15747635       0.00000000 </v>
     <v>       0.00000000       0.00000000       0.15747635 </v>
    </varray>
   </crystal>
   <varray name="positions" >
    <v>       0.97693617       0.03474815       0.00000000 </v>
    <v>       0.00821665       0.89778462       0.00000000 </v>
    <v>       0.11155488       0.09144004       0.00000000 </v>
   </varray>
  </structure>
  <varray name="forces" >
   <v>      -2.87623724       3.88339503      -0.00000000 </v>
   <v>       0.59593389      -5.50462754       0.00000000 </v>
   <v>       2.28488400       1.61856784       0.00000000 </v>
  </varray>
  <energy>
   <i name="e_fr_energy">    -13.95035398 </i>
   <i name="e_wo_entrp">    -13.95035398 </i>
   <i name="e_0_energy">     -0.00000000 </i>
   <i name="kinetic">      0.34240502 </i>
   <i name="lattice kinetic">      0.00000000 </i>
   <i name="nosepot">      0.00000000 </i>
   <i name="nosekinetic">      0.00000000 </i>
   <i name="total">    -13.60794895 </i>
  </energy>
  <time name="totalsc">    0.24    0.24</time>
 </calculation>
 <calculation>
  <scstep>
   <time name="dav">    0.01    0.01</time>
   <time name="total">    0.04    0.04</time>
   <energy>
    <i name="alphaZ">      0.87564028 </i>
    <i name="ewald">     -6.02225597 </i>
    <i name="hartreedc">   -389.91578321 </i>
    <i name="XCdc">     34.57082725 </i>
    <i name="pawpsdc">    353.87538359 </i>
    <i name="pawaedc">   -356.10252840 </i>
    <i name="eentropy">     -0.00000000 </i>
    <i name="bandstr">   -108.53850515 </i>
    <i name="atom">    457.22046137 </i>
    <i name="e_fr_energy">    -14.03676025 </i>
    <i name="e_wo_entrp">    -14.03676025 </i>
    <i name="e_0_energy">    -14.03676025 </i>
   </energy>
  </scstep>
  <scstep>
   <time name="dav">    0.02    0.02</time>
   <time name="total">    0.04    0.04</time>
   <energy>
    <i name="e_fr_energy">    -14.03350122 </i>
    <i name="e_wo_entrp">    -14.03350122 </i>
    <i name="e_0_energy">    -14.03350122 </i>
   </energy>
  </scstep>
  <scstep>
   <time name="dav">    0.01    0.01</time>
   <time name="total">    0.04    0.04</time>
   <energy>
    <i name="e_fr_energy">    -14.03392103 </i>
    <i name="e_wo_entrp">    -14.03392103 </i>
    <i name="e_0_energy">    -14.03392103 </i>
   </energy>
  </scstep>
  <scstep>
   <time name="dav">    0.01    0.01</time>
   <time name="total">    0.04    0.04</time>
   <energy>
    <i name="e_fr_energy">    -14.03425344 </i>
    <i name="e_wo_entrp">    -14.03425344 </i>
    <i name="e_0_energy">    -14.03425344 </i>
   </energy>
  </scstep>
  <scstep>
   <time name="dav">    0.01    0.01</time>
   <time name="total">    0.04    0.04</time>
   <energy>
    <i name="alphaZ">      0.87564028 </i>
    <i name="ewald">     -6.02225597 </i>
    <i name="hartreedc">   -388.84632468 </i>
    <i name="XCdc">     34.51894956 </i>
    <i name="pawpsdc">    345.57779696 </i>
    <i name="pawaedc">   -347.75585530 </i>
    <i name="eentropy">     -0.00000000 </i>
    <i name="bandstr">   -109.60269431 </i>
    <i name="atom">    457.22046137 </i>
    <i name="e_fr_energy">    -14.03428209 </i>
    <i name="e_wo_entrp">    -14.03428209 </i>
    <i name="e_0_energy">    -14.03428209 </i>
   </energy>
  </scstep>
  <structure>
   <crystal>
    <varray name="basis" >
     <v>       6.35016000       0.00000000       0.00000000 </v>
     <v>       0.00000000       6.35016000       0.00000000 </v>
     <v>       0.00000000       0.00000000       6.35016000 </v>
    </varray>
    <i name="volume">    256.06723029 </i>
    <varray name="rec_basis" >
     <v>       0.15747635       0.00000000       0.00000000 </v>
     <v>       0.00000000       0.15747635       0.00000000 </v>
     <v>       0.00000000       0.00000000       0.15747635 </v>
    </varray>
   </crystal>
   <varray name="positions" >
    <v>       0.97562423       0.03707052       0.00000000 </v>
    <v>       0.00164666       0.89652627       0.00000000 </v>
    <v>       0.11211486       0.08960900       0.00000000 </v>
   </varray>
  </structure>
  <varray name="forces" >
   <v>      -2.50147436       2.77817815       0.00000000 </v>
   <v>       0.22622676      -4.20717497      -0.00000000 </v>
   <v>       2.27178152       1.42803813      -0.00000000 </v>
  </varray>
  <energy>
   <i name="e_fr_energy">    -14.03428209 </i>
[...]
       <r>    -1.4937   279.7618   886.0993 </r>
       <r>    -1.3933   265.1385   912.7790 </r>
       <r>    -1.2929   283.7049   941.7707 </r>
       <r>    -1.1925   292.9946   972.0060 </r>
       <r>    -1.0921   195.8129   992.2933 </r>
       <r>    -0.9917    66.5432   999.1984 </r>
       <r>    -0.8913     7.5121   999.9786 </r>
       <r>    -0.7909     0.2054   999.9999 </r>
       <r>    -0.6905     0.0010  1000.0000 </r>
       <r>    -0.5901     0.0000  1000.0000 </r>
       <r>    -0.4897     0.0000  1000.0000 </r>
       <r>    -0.3893     0.0000  1000.0000 </r>
       <r>    -0.2889     0.0000  1000.0000 </r>
       <r>    -0.1885     0.0000  1000.0000 </r>
       <r>    -0.0881     0.0000  1000.0000 </r>
       <r>     0.0123     0.0000  1000.0000 </r>
       <r>     0.1127     0.0000  1000.0000 </r>
       <r>     0.2131     0.0000  1000.0000 </r>
       <r>     0.3134     0.0000  1000.0000 </r>
       <r>     0.4138     0.0000  1000.0000 </r>
       <r>     0.5142     0.0000  1000.0000 </r>
       <r>     0.6146     0.0001  1000.0000 </r>
       <r>     0.7150     0.0245  1000.0024 </r>
       <r>     0.8154     1.6260  1000.1629 </r>
       <r>     0.9158    20.8033  1002.2155 </r>
       <r>     1.0162    67.4772  1008.8739 </r>
       <r>     1.1166    89.4412  1017.7177 </r>
       <r>     1.2170   108.7235  1028.4837 </r>
       <r>     1.3174   129.2676  1041.2807 </r>
       <r>     1.4178   146.6349  1055.8649 </r>
       <r>     1.5182   176.6824  1073.4674 </r>
       <r>     1.6186   283.4917  1101.7113 </r>
       <r>     1.7190   424.0945  1144.1067 </r>
       <r>     1.8194   471.6500  1191.4662 </r>
       <r>     1.9198   475.4530  1239.3849 </r>
       <r>     2.0202   485.3199  1288.6321 </r>
       <r>     2.1206   506.5256  1340.5928 </r>
       <r>     2.2210   380.1025  1379.7657 </r>
       <r>     2.3214   151.2977  1395.3846 </r>
       <r>     2.4218    89.6911  1404.5210 </r>
       <r>     2.5222   552.8789  1460.3310 </r>
       <r>     2.6226  1023.1591  1563.6438 </r>
       <r>     2.7230   340.9707  1598.0374 </r>
       <r>     2.8234    19.3354  1599.9824 </r>
       <r>     2.9238     0.1758  1600.0000 </r>
       <r>     3.0242     0.0003  1600.0000 </r>
       <r>     3.1246     0.0000  1600.0000 </r>
       <r>     3.2250     0.0000  1600.0000 </r>
       <r>     3.3254     0.0000  1600.0000 </r>
       <r>     3.4258     0.0000  1600.0000 </r>
       <r>     3.5262     0.0000  1600.0000 </r>
       <r>     3.6266     0.0000  1600.0000 </r>
       <r>     3.7270     0.0000  1600.0000 </r>
       <r>     3.8274     0.0000  1600.0000 </r>
       <r>     3.9278     0.0000  1600.0000 </r>
      </set>
     </set>
    </array>
   </total>
  </dos>
  <time name="totalsc">    0.21    0.21</time>
  <eigenvalues>
   <array>
    <dimension dim="1">band</dimension>
    <dimension dim="2">kpoint</dimension>
    <dimension dim="3">spin</dimension>
    <field>eigene</field>
    <field>occ</field>
    <set>
     <set comment="spin 1">
      <set comment="kpoint 1">
       <r>  -24.3716    1.0000 </r>
       <r>  -11.9652    1.0000 </r>
       <r>   -9.0611    1.0000 </r>
       <r>   -6.7495    1.0000 </r>
       <r>   -1.4347    0.0000 </r>
       <r>    1.7012    0.0000 </r>
       <r>    1.8953    0.0000 </r>
       <r>    2.5013    0.0000 </r>
      </set>
     </set>
    </set>
   </array>
  </eigenvalues>
  <separator name="orbital magnetization" >
   <v name="MAGDIPOLOUT">      0.00000000      0.00000000      0.00000000</v>
  </separator>
  <dos>
   <i name="efermi">     -6.20243685 </i>
   <total>
    <array>
     <dimension dim="1">gridpoints</dimension>
     <dimension dim="2">spin</dimension>
     <field>energy</field>
     <field>total</field>
     <field>integrated</field>
     <set>
      <set comment="spin 1">
       <r>   -25.7153     0.0000     0.0000 </r>
       <r>   -25.6167     0.0000     0.0000 </r>
       <r>   -25.5182     0.0000     0.0000 </r>
       <r>   -25.4197     0.0000     0.0000 </r>
       <r>   -25.3211     0.0000     0.0000 </r>
       <r>   -25.2226     0.0000     0.0000 </r>
       <r>   -25.1241     0.0000     0.0000 </r>
       <r>   -25.0255     0.0000     0.0000 </r>
       <r>   -24.9270     0.0000     0.0000 </r>
       <r>   -24.8285     0.0000     0.0000 </r>
       <r>   -24.7299     0.0000     0.0000 </r>
       <r>   -24.6314     0.0024     0.0002 </r>
       <r>   -24.5329     0.2269     0.0226 </r>
       <r>   -24.4343     3.5786     0.3752 </r>
       <r>   -24.3358    10.2750     1.3876 </r>
       <r>   -24.2373     5.6320     1.9426 </r>
       <r>   -24.1387     0.5726     1.9990 </r>
       <r>   -24.0402     0.0100     2.0000 </r>
       <r>   -23.9417     0.0000     2.0000 </r>
       <r>   -23.8431     0.0000     2.0000 </r>
       <r>   -23.7446     0.0000     2.0000 </r>
       <r>   -23.6461     0.0000     2.0000 </r>
       <r>   -23.5475     0.0000     2.0000 </r>
       <r>   -23.4490     0.0000     2.0000 </r>
       <r>   -23.3505     0.0000     2.0000 </r>
       <r>   -23.2519     0.0000     2.0000 </r>
       <r>   -23.1534     0.0000     2.0000 </r>
       <r>   -23.0549     0.0000     2.0000 </r>
       <r>   -22.9563     0.0000     2.0000 </r>
       <r>   -22.8578     0.0000     2.0000 </r>
       <r>   -22.7592     0.0000     2.0000 </r>
       <r>   -22.6607     0.0000     2.0000 </r>
       <r>   -22.5622     0.0000     2.0000 </r>
       <r>   -22.4636     0.0000     2.0000 </r>
       <r>   -22.3651     0.0000     2.0000 </r>
       <r>   -22.2666     0.0000     2.0000 </r>
       <r>   -22.1680     0.0000     2.0000 </r>
       <r>   -22.0695     0.0000     2.0000 </r>
       <r>   -21.9710     0.0000     2.0000 </r>
       <r>   -21.8724     0.0000     2.0000 </r>
       <r>   -21.7739     0.0000     2.0000 </r>
       <r>   -21.6754     0.0000     2.0000 </r>
       <r>   -21.5768     0.0000     2.0000 </r>
       <r>   -21.4783     0.0000     2.0000 </r>
       <r>   -21.3798     0.0000     2.0000 </r>
       <r>   -21.2812     0.0000     2.0000 </r>
       <r>   -21.1827     0.0000     2.0000 </r>
       <r>   -21.0842     0.0000     2.0000 </r>
       <r>   -20.9856     0.0000     2.0000 </r>
       <r>   -20.8871     0.0000     2.0000 </r>
       <r>   -20.7886     0.0000     2.0000 </r>
       <r>   -20.6900     0.0000     2.0000 </r>
       <r>   -20.5915     0.0000     2.0000 </r>
       <r>   -20.4930     0.0000     2.0000 </r>
       <r>   -20.3944     0.0000     2.0000 </r>
       <r>   -20.2959     0.0000     2.0000 </r>
       <r>   -20.1974     0.0000     2.0000 </r>
       <r>   -20.0988     0.0000     2.0000 </r>
       <r>   -20.0003     0.0000     2.0000 </r>
       <r>   -19.9018     0.0000     2.0000 </r>
       <r>   -19.8032     0.0000     2.0000 </r>
       <r>   -19.7047     0.0000     2.0000 </r>
       <r>   -19.6062     0.0000     2.0000 </r>
       <r>   -19.5076     0.0000     2.0000 </r>
       <r>   -19.4091     0.0000     2.0000 </r>
       <r>   -19.3106     0.0000     2.0000 </r>
       <r>   -19.2120     0.0000     2.0000 </r>
       <r>   -19.1135     0.0000     2.0000 </r>
       <r>   -19.0150     0.0000     2.0000 </r>
       <r>   -18.9164     0.0000     2.0000 </r>
       <r>   -18.8179     0.0000     2.0000 </r>
       <r>   -18.7193     0.0000     2.0000 </r>
       <r>   -18.6208     0.0000     2.0000 </r>
       <r>   -18.5223     0.0000     2.0000 </r>
       <r>   -18.4237     0.0000     2.0000 </r>
       <r>   -18.3252     0.0000     2.0000 </r>
       <r>   -18.2267     0.0000     2.0000 </r>
       <r>   -18.1281     0.0000     2.0000 </r>
       <r>   -18.0296     0.0000     2.0000 </r>
       <r>   -17.9311     0.0000     2.0000 </r>
       <r>   -17.8325     0.0000     2.0000 </r>
       <r>   -17.7340     0.0000     2.0000 </r>
       <r>   -17.6355     0.0000     2.0000 </r>
       <r>   -17.5369     0.0000     2.0000 </r>
       <r>   -17.4384     0.0000     2.0000 </r>
       <r>   -17.3399     0.0000     2.0000 </r>
       <r>   -17.2413     0.0000     2.0000 </r>
       <r>   -17.1428     0.0000     2.0000 </r>
       <r>   -17.0443     0.0000     2.0000 </r>
       <r>   -16.9457     0.0000     2.0000 </r>
       <r>   -16.8472     0.0000     2.0000 </r>
       <r>   -16.7487     0.0000     2.0000 </r>
       <r>   -16.6501     0.0000     2.0000 </r>
       <r>   -16.5516     0.0000     2.0000 </r>
       <r>   -16.4531     0.0000     2.0000 </r>
       <r>   -16.3545     0.0000     2.0000 </r>
       <r>   -16.2560     0.0000     2.0000 </r>
       <r>   -16.1575     0.0000     2.0000 </r>
       <r>   -16.0589     0.0000     2.0000 </r>
       <r>   -15.9604     0.0000     2.0000 </r>
       <r>   -15.8619     0.0000     2.0000 </r>
       <r>   -15.7633     0.0000     2.0000 </r>
       <r>   -15.6648     0.0000     2.0000 </r>
       <r>   -15.5663     0.0000     2.0000 </r>
       <r>   -15.4677     0.0000     2.0000 </r>
       <r>   -15.3692     0.0000     2.0000 </r>
       <r>   -15.2707     0.0000     2.0000 </r>
       <r>   -15.1721     0.0000     2.0000 </r>
       <r>   -15.0736     0.0000     2.0000 </r>
       <r>   -14.9751     0.0000     2.0000 </r>
       <r>   -14.8765     0.0000     2.0000 </r>
       <r>   -14.7780     0.0000     2.0000 </r>
       <r>   -14.6795     0.0000     2.0000 </r>
       <r>   -14.5809     0.0000     2.0000 </r>
       <r>   -14.4824     0.0000     2.0000 </r>
       <r>   -14.3838     0.0000     2.0000 </r>
       <r>   -14.2853     0.0000     2.0000 </r>
       <r>   -14.1868     0.0000     2.0000 </r>
       <r>   -14.0882     0.0000     2.0000 </r>
       <r>   -13.9897     0.0000     2.0000 </r>
       <r>   -13.8912     0.0000     2.0000 </r>
       <r>   -13.7926     0.0000     2.0000 </r>
       <r>   -13.6941     0.0000     2.0000 </r>
       <r>   -13.5956     0.0000     2.0000 </r>
       <r>   -13.4970     0.0000     2.0000 </r>
       <r>   -13.3985     0.0000     2.0000 </r>
       <r>   -13.3000     0.0000     2.0000 </r>
       <r>   -13.2014     0.0000     2.0000 </r>
       <r>   -13.1029     0.0000     2.0000 </r>
       <r>   -13.0044     0.0000     2.0000 </r>
       <r>   -12.9058     0.0000     2.0000 </r>
       <r>   -12.8073     0.0000     2.0000 </r>
       <r>   -12.7088     0.0000     2.0000 </r>
       <r>   -12.6102     0.0000     2.0000 </r>
       <r>   -12.5117     0.0000     2.0000 </r>
       <r>   -12.4132     0.0000     2.0000 </r>
       <r>   -12.3146     0.0000     2.0000 </r>
       <r>   -12.2161     0.0039     2.0004 </r>
       <r>   -12.1176     0.3128     2.0312 </r>
       <r>   -12.0190     4.2171     2.4467 </r>
       <r>   -11.9205    10.4155     3.4730 </r>
       <r>   -11.8220     4.9143     3.9572 </r>
       <r>   -11.7234     0.4275     3.9994 </r>
       <r>   -11.6249     0.0063     4.0000 </r>
       <r>   -11.5264     0.0000     4.0000 </r>
       <r>   -11.4278     0.0000     4.0000 </r>
       <r>   -11.3293     0.0000     4.0000 </r>
       <r>   -11.2308     0.0000     4.0000 </r>
       <r>   -11.1322     0.0000     4.0000 </r>
       <r>   -11.0337     0.0000     4.0000 </r>
       <r>   -10.9352     0.0000     4.0000 </r>
       <r>   -10.8366     0.0000     4.0000 </r>
       <r>   -10.7381     0.0000     4.0000 </r>
       <r>   -10.6396     0.0000     4.0000 </r>
       <r>   -10.5410     0.0000     4.0000 </r>
       <r>   -10.4425     0.0000     4.0000 </r>
       <r>   -10.3439     0.0000     4.0000 </r>
       <r>   -10.2454     0.0000     4.0000 </r>
       <r>   -10.1469     0.0000     4.0000 </r>
       <r>   -10.0483     0.0000     4.0000 </r>
       <r>    -9.9498     0.0000     4.0000 </r>
       <r>    -9.8513     0.0000     4.0000 </r>
       <r>    -9.7527     0.0000     4.0000 </r>
       <r>    -9.6542     0.0000     4.0000 </r>
       <r>    -9.5557     0.0000     4.0000 </r>
       <r>    -9.4571     0.0000     4.0000 </r>
       <r>    -9.3586     0.0003     4.0000 </r>
       <r>    -9.2601     0.0495     4.0049 </r>
       <r>    -9.1615     1.5293     4.1556 </r>
       <r>    -9.0630     8.3544     4.9788 </r>
       <r>    -8.9645     8.6220     5.8283 </r>
       <r>    -8.8659     1.6835     5.9942 </r>
       <r>    -8.7674     0.0583     6.0000 </r>
       <r>    -8.6689     0.0003     6.0000 </r>
       <r>    -8.5703     0.0000     6.0000 </r>
       <r>    -8.4718     0.0000     6.0000 </r>
       <r>    -8.3733     0.0000     6.0000 </r>
       <r>    -8.2747     0.0000     6.0000 </r>
       <r>    -8.1762     0.0000     6.0000 </r>
       <r>    -8.0777     0.0000     6.0000 </r>
       <r>    -7.9791     0.0000     6.0000 </r>
       <r>    -7.8806     0.0000     6.0000 </r>
       <r>    -7.7821     0.0000     6.0000 </r>
       <r>    -7.6835     0.0000     6.0000 </r>
       <r>    -7.5850     0.0000     6.0000 </r>
       <r>    -7.4865     0.0000     6.0000 </r>
       <r>    -7.3879     0.0000     6.0000 </r>
       <r>    -7.2894     0.0000     6.0000 </r>
       <r>    -7.1909     0.0000     6.0000 </r>
       <r>    -7.0923     0.0000     6.0000 </r>
       <r>    -6.9938     0.0056     6.0006 </r>
       <r>    -6.8953     0.3928     6.0393 </r>
       <r>    -6.7967     4.7179     6.5041 </r>
       <r>    -6.6982    10.4300     7.5318 </r>
       <r>    -6.5997     4.4052     7.9659 </r>
       <r>    -6.5011     0.3415     7.9996 </r>
       <r>    -6.4026     0.0045     8.0000 </r>
       <r>    -6.3041     0.0000     8.0000 </r>
       <r>    -6.2055     0.0000     8.0000 </r>
       <r>    -6.1070     0.0000     8.0000 </r>
       <r>    -6.0084     0.0000     8.0000 </r>
       <r>    -5.9099     0.0000     8.0000 </r>
       <r>    -5.8114     0.0000     8.0000 </r>
       <r>    -5.7128     0.0000     8.0000 </r>
       <r>    -5.6143     0.0000     8.0000 </r>
       <r>    -5.5158     0.0000     8.0000 </r>
       <r>    -5.4172     0.0000     8.0000 </r>
       <r>    -5.3187     0.0000     8.0000 </r>
       <r>    -5.2202     0.0000     8.0000 </r>
       <r>    -5.1216     0.0000     8.0000 </r>
       <r>    -5.0231     0.0000     8.0000 </r>
       <r>    -4.9246     0.0000     8.0000 </r>
       <r>    -4.8260     0.0000     8.0000 </r>
       <r>    -4.7275     0.0000     8.0000 </r>
       <r>    -4.6290     0.0000     8.0000 </r>
       <r>    -4.5304     0.0000     8.0000 </r>
       <r>    -4.4319     0.0000     8.0000 </r>
       <r>    -4.3334     0.0000     8.0000 </r>
       <r>    -4.2348     0.0000     8.0000 </r>
       <r>    -4.1363     0.0000     8.0000 </r>
       <r>    -4.0378     0.0000     8.0000 </r>
       <r>    -3.9392     0.0000     8.0000 </r>
       <r>    -3.8407     0.0000     8.0000 </r>
       <r>    -3.7422     0.0000     8.0000 </r>
       <r>    -3.6436     0.0000     8.0000 </r>
       <r>    -3.5451     0.0000     8.0000 </r>
       <r>    -3.4466     0.0000     8.0000 </r>
       <r>    -3.3480     0.0000     8.0000 </r>
       <r>    -3.2495     0.0000     8.0000 </r>
       <r>    -3.1510     0.0000     8.0000 </r>
       <r>    -3.0524     0.0000     8.0000 </r>
       <r>    -2.9539     0.0000     8.0000 </r>
       <r>    -2.8554     0.0000     8.0000 </r>
       <r>    -2.7568     0.0000     8.0000 </r>
       <r>    -2.6583     0.0000     8.0000 </r>
       <r>    -2.5598     0.0000     8.0000 </r>
       <r>    -2.4612     0.0000     8.0000 </r>
       <r>    -2.3627     0.0000     8.0000 </r>
       <r>    -2.2642     0.0000     8.0000 </r>
       <r>    -2.1656     0.0000     8.0000 </r>
       <r>    -2.0671     0.0000     8.0000 </r>
       <r>    -1.9685     0.0000     8.0000 </r>
       <r>    -1.8700     0.0000     8.0000 </r>
       <r>    -1.7715     0.0000     8.0000 </r>
       <r>    -1.6729     0.0076     8.0008 </r>
       <r>    -1.5744     0.4810     8.0481 </r>
       <r>    -1.4759     5.1963     8.5602 </r>
       <r>    -1.3773    10.3762     9.5826 </r>
       <r>    -1.2788     3.9574     9.9725 </r>
       <r>    -1.1803     0.2758     9.9997 </r>
       <r>    -1.0817     0.0033    10.0000 </r>
       <r>    -0.9832     0.0000    10.0000 </r>
       <r>    -0.8847     0.0000    10.0000 </r>
       <r>    -0.7861     0.0000    10.0000 </r>
       <r>    -0.6876     0.0000    10.0000 </r>
       <r>    -0.5891     0.0000    10.0000 </r>
       <r>    -0.4905     0.0000    10.0000 </r>
       <r>    -0.3920     0.0000    10.0000 </r>
       <r>    -0.2935     0.0000    10.0000 </r>
       <r>    -0.1949     0.0000    10.0000 </r>
       <r>    -0.0964     0.0000    10.0000 </r>
       <r>     0.0021     0.0000    10.0000 </r>
       <r>     0.1007     0.0000    10.0000 </r>
       <r>     0.1992     0.0000    10.0000 </r>
       <r>     0.2977     0.0000    10.0000 </r>
       <r>     0.3963     0.0000    10.0000 </r>
       <r>     0.4948     0.0000    10.0000 </r>
       <r>     0.5933     0.0000    10.0000 </r>
       <r>     0.6919     0.0000    10.0000 </r>
       <r>     0.7904     0.0000    10.0000 </r>
       <r>     0.8889     0.0000    10.0000 </r>
       <r>     0.9875     0.0000    10.0000 </r>
       <r>     1.0860     0.0000    10.0000 </r>
       <r>     1.1845     0.0000    10.0000 </r>
       <r>     1.2831     0.0000    10.0000 </r>
       <r>     1.3816     0.0001    10.0000 </r>
       <r>     1.4801     0.0179    10.0018 </r>
       <r>     1.5787     0.8266    10.0832 </r>
       <r>     1.6772     6.6326    10.7368 </r>
       <r>     1.7757    10.7827    11.7992 </r>
       <r>     1.8743     9.6659    12.7517 </r>
       <r>     1.9728     9.8960    13.7268 </r>
       <r>     2.0714     2.6433    13.9872 </r>
       <r>     2.1699     0.1289    13.9999 </r>
       <r>     2.2684     0.0111    14.0010 </r>
       <r>     2.3670     0.5726    14.0574 </r>
       <r>     2.4655     5.6320    14.6124 </r>
       <r>     2.5640    10.2750    15.6248 </r>
       <r>     2.6626     3.5786    15.9774 </r>
       <r>     2.7611     0.2269    15.9998 </r>
       <r>     2.8596     0.0024    16.0000 </r>
       <r>     2.9582     0.0000    16.0000 </r>
       <r>     3.0567     0.0000    16.0000 </r>
       <r>     3.1552     0.0000    16.0000 </r>
       <r>     3.2538     0.0000    16.0000 </r>
       <r>     3.3523     0.0000    16.0000 </r>
       <r>     3.4508     0.0000    16.0000 </r>
       <r>     3.5494     0.0000    16.0000 </r>
       <r>     3.6479     0.0000    16.0000 </r>
       <r>     3.7464     0.0000    16.0000 </r>
       <r>     3.8450     0.0000    16.0000 </r>
      </set>
     </set>
    </array>
   </total>
  </dos>
 </calculation>
 <structure name="finalpos" >
  <crystal>
   <varray name="basis" >
    <v>       6.35016000       0.00000000       0.00000000 </v>
    <v>       0.00000000       6.35016000       0.00000000 </v>
    <v>       0.00000000       0.00000000       6.35016000 </v>
   </varray>
   <i name="volume">    256.06723029 </i>
   <varray name="rec_basis" >
    <v>       0.15747635       0.00000000       0.00000000 </v>
    <v>       0.00000000       0.15747635       0.00000000 </v>
    <v>       0.00000000       0.00000000       0.15747635 </v>
   </varray>
  </crystal>
  <varray name="positions" >
   <v>       0.87199760       0.19050443       0.00000000 </v>
   <v>       0.75195483       0.30423568       0.00000000 </v>
   <v>       0.78268615       0.05646143       0.00000000 </v>
  </varray>
  <varray name="selective"  type="logical" >
   <v type="logical" >  T  T  F </v>
   <v type="logical" >  T  T  F </v>
   <v type="logical" >  T  T  F </v>
  </varray>
  <varray name="velocities" >
   <v>      -0.00086215       0.00166316       0.00000000 </v>
   <v>      -0.00387652       0.00979252       0.00000000 </v>
   <v>      -0.00918561      -0.00227501       0.00000000 </v>
  </varray>
  <nose>
   <v>      -3.00000000       0.00000000    2000.00000000    2000.00000000 </v>
  </nose>
 </structure>
</modeling>
