unknown system                          
           1
     6.350160    0.000000    0.000000
     0.000000    6.350160    0.000000
     0.000000    0.000000    6.350160
   O    H 
   1   2
Direct configuration=     1
   0.00000000  0.00000000  0.00000000
   0.09166667  0.88083333  0.00000000
   0.09166667  0.11916667  0.00000000
Direct configuration=     2
   0.99812420  0.00240992  0.00000000
   0.09060882  0.87115224  0.00000000
   0.09570033  0.12436855  0.00000000
Direct configuration=     3
   0.99637458  0.00473238  0.00000000
   0.08809701  0.86417641  0.00000000
   0.09917313  0.12826100  0.00000000
Direct configuration=     4
   0.99486128  0.00693636  0.00000000
   0.08327195  0.86182783  0.00000000
   0.10117676  0.12942136  0.00000000
Direct configuration=     5
   0.99360573  0.00901340  0.00000000
   0.07610093  0.86462534  0.00000000
   0.10141466  0.12746002  0.00000000
Direct configuration=     6
   0.99255401  0.01097325  0.00000000
   0.06711552  0.87189970  0.00000000
   0.10021051  0.12290217  0.00000000
Direct configuration=     7
   0.99156344  0.01287213  0.00000000
   0.05754209  0.88131399  0.00000000
   0.09861155  0.11719122  0.00000000
Direct configuration=     8
   0.99038724  0.01487294  0.00000000
   0.04954500  0.88808115  0.00000000
   0.09840027  0.11250262  0.00000000
Direct configuration=     9
   0.98880174  0.01718329  0.00000000
   0.04508421  0.88714876  0.00000000
   0.10119036  0.11056454  0.00000000
Direct configuration=    10
   0.98686862  0.01974400  0.00000000
   0.04332040  0.87973805  0.00000000
   0.10683611  0.11109582  0.00000000
Direct configuration=    11
   0.98484980  0.02232211  0.00000000
   0.04198006  0.87138980  0.00000000
   0.11342700  0.11226024  0.00000000
Direct configuration=    12
   0.98296606  0.02477274  0.00000000
   0.03964898  0.86614997  0.00000000
   0.11883740  0.11235160  0.00000000
Direct configuration=    13
   0.98133827  0.02703698  0.00000000
   0.03577418  0.86583462  0.00000000
   0.12168220  0.11050431  0.00000000
Direct configuration=    14
   0.98000461  0.02909948  0.00000000
   0.03027638  0.87075488  0.00000000
   0.12146705  0.10663864  0.00000000
Direct configuration=    15
   0.97892503  0.03098614  0.00000000
   0.02338606  0.87994514  0.00000000
   0.11859473  0.10132741  0.00000000
Direct configuration=    16
   0.97797498  0.03279456  0.00000000
   0.01569212  0.89067915  0.00000000
   0.11446659  0.09573035  0.00000000
Direct configuration=    17
   0.97693617  0.03474815  0.00000000
   0.00821665  0.89778462  0.00000000
   0.11155488  0.09144004  0.00000000
Direct configuration=    18
   0.97562423  0.03707052  0.00000000
   0.00164666  0.89652627  0.00000000
   0.11211486  0.08960900  0.00000000
Direct configuration=    19
   0.97407473  0.03965672  0.00000000
   0.99542040  0.88887548  0.00000000
   0.11612661  0.08994774  0.00000000
Direct configuration=    20
   0.97247209  0.04222782  0.00000000
   0.98887374  0.88064746  0.00000000
   0.12130553  0.09110612  0.00000000
Direct configuration=    21
   0.97097525  0.04460887  0.00000000
   0.98195451  0.87591035  0.00000000
   0.12515583  0.09182667  0.00000000
Direct configuration=    22
   0.96966485  0.04673048  0.00000000
   0.97491582  0.87647812  0.00000000
   0.12613802  0.09140788  0.00000000
Direct configuration=    23
   0.96855386  0.04858406  0.00000000
   0.96804051  0.88265681  0.00000000
   0.12378086  0.08965571  0.00000000
Direct configuration=    24
   0.96759126  0.05022026  0.00000000
   0.96152825  0.89341979  0.00000000
   0.11868844  0.08679413  0.00000000
Direct configuration=    25
   0.96666951  0.05178315  0.00000000
   0.95534332  0.90586455  0.00000000
   0.11262160  0.08341461  0.00000000
Direct configuration=    26
   0.96564712  0.05355486  0.00000000
   0.94896886  0.91466544  0.00000000
   0.10835439  0.08032406  0.00000000
Direct configuration=    27
   0.96442329  0.05580263  0.00000000
   0.94157259  0.91503754  0.00000000
   0.10834151  0.07803802  0.00000000
Direct configuration=    28
   0.96300495  0.05840443  0.00000000
   0.93329402  0.90924567  0.00000000
   0.11232747  0.07625345  0.00000000
Direct configuration=    29
   0.96148910  0.06104563  0.00000000
   0.92530825  0.90305172  0.00000000
   0.11757678  0.07425289  0.00000000
Direct configuration=    30
   0.95998687  0.06351860  0.00000000
   0.91865309  0.90025421  0.00000000
   0.12127068  0.07156863  0.00000000
Direct configuration=    31
   0.95857118  0.06572957  0.00000000
   0.91386602  0.90242425  0.00000000
   0.12170590  0.06811796  0.00000000
Direct configuration=    32
   0.95726953  0.06765883  0.00000000
   0.91102311  0.90968682  0.00000000
   0.11836946  0.06407071  0.00000000
Direct configuration=    33
   0.95606845  0.06935980  0.00000000
   0.90970653  0.92088390  0.00000000
   0.11189267  0.05973631  0.00000000
Direct configuration=    34
   0.95492642  0.07099439  0.00000000
   0.90875093  0.93308952  0.00000000
   0.10409990  0.05545748  0.00000000
Direct configuration=    35
   0.95379107  0.07287130  0.00000000
   0.90599983  0.94119276  0.00000000
   0.09798908  0.05141300  0.00000000
Direct configuration=    36
   0.95261521  0.07523224  0.00000000
   0.89958626  0.94143830  0.00000000
   0.09618745  0.04748976  0.00000000
Direct configuration=    37
   0.95135753  0.07790244  0.00000000
   0.89039433  0.93673366  0.00000000
   0.09846127  0.04356429  0.00000000
Direct configuration=    38
   0.95004318  0.08054046  0.00000000
   0.88079731  0.93231709  0.00000000
   0.10204878  0.03986819  0.00000000
Direct configuration=    39
   0.94873455  0.08291947  0.00000000
   0.87259323  0.93139169  0.00000000
   0.10416384  0.03682809  0.00000000
Direct configuration=    40
   0.94747517  0.08493951  0.00000000
   0.86671143  0.93519939  0.00000000
   0.10318384  0.03479701  0.00000000
Direct configuration=    41
   0.94627742  0.08658655  0.00000000
   0.86340108  0.94376796  0.00000000
   0.09866055  0.03393311  0.00000000
Direct configuration=    42
   0.94512751  0.08794051  0.00000000
   0.86216953  0.95598232  0.00000000
   0.09129930  0.03411028  0.00000000
Direct configuration=    43
   0.94400830  0.08919477  0.00000000
   0.86140763  0.96923876  0.00000000
   0.08297544  0.03483823  0.00000000
Direct configuration=    44
   0.94293097  0.09068660  0.00000000
   0.85794233  0.97913155  0.00000000
   0.07669235  0.03512765  0.00000000
Direct configuration=    45
   0.94190603  0.09267247  0.00000000
   0.84917114  0.98261363  0.00000000
   0.07489008  0.03393293  0.00000000
Direct configuration=    46
   0.94085101  0.09501473  0.00000000
   0.83693125  0.98206047  0.00000000
   0.07702862  0.03107725  0.00000000
Direct configuration=    47
   0.93970549  0.09740753  0.00000000
   0.82516217  0.98151784  0.00000000
   0.08014504  0.02740821  0.00000000
Direct configuration=    48
   0.93847576  0.09964038  0.00000000
   0.81656473  0.98331021  0.00000000
   0.08143508  0.02396576  0.00000000
Direct configuration=    49
   0.93718413  0.10161803  0.00000000
   0.81233799  0.98824576  0.00000000
   0.07934638  0.02146603  0.00000000
Direct configuration=    50
   0.93584824  0.10332647  0.00000000
   0.81256321  0.99621846  0.00000000
   0.07351309  0.02021076  0.00000000
Direct configuration=    51
   0.93448924  0.10483559  0.00000000
   0.81618311  0.00630424  0.00000000
   0.06466081  0.02003795  0.00000000
Direct configuration=    52
   0.93316261  0.10632236  0.00000000
   0.82044697  0.01643556  0.00000000
   0.05464563  0.02018395  0.00000000
Direct configuration=    53
   0.93198345  0.10808420  0.00000000
   0.82067282  0.02335709  0.00000000
   0.04631571  0.01914691  0.00000000
Direct configuration=    54
   0.93100170  0.11031922  0.00000000
   0.81383932  0.02533188  0.00000000
   0.04189972  0.01547999  0.00000000
Direct configuration=    55
   0.93007230  0.11286260  0.00000000
   0.80282168  0.02473889  0.00000000
   0.04083225  0.00943981  0.00000000
Direct configuration=    56
   0.92906569  0.11539901  0.00000000
   0.79224181  0.02471387  0.00000000
   0.04057186  0.00294745  0.00000000
Direct configuration=    57
   0.92794034  0.11770214  0.00000000
   0.78492950  0.02694287  0.00000000
   0.03894577  0.99793395  0.00000000
Direct configuration=    58
   0.92669173  0.11966204  0.00000000
   0.78203095  0.03199929  0.00000000
   0.03487856  0.99558813  0.00000000
Direct configuration=    59
   0.92532993  0.12126106  0.00000000
   0.78350798  0.03979214  0.00000000
   0.02824324  0.99628441  0.00000000
Direct configuration=    60
   0.92388949  0.12257143  0.00000000
   0.78809335  0.04962484  0.00000000
   0.01974814  0.99956611  0.00000000
Direct configuration=    61
   0.92246484  0.12377705  0.00000000
   0.79272012  0.06001568  0.00000000
   0.01094809  0.00397065  0.00000000
Direct configuration=    62
   0.92122721  0.12517539  0.00000000
   0.79238453  0.06880600  0.00000000
   0.00412401  0.00689533  0.00000000
Direct configuration=    63
   0.92025150  0.12697053  0.00000000
   0.78425331  0.07506205  0.00000000
   0.00090726  0.00601009  0.00000000
Direct configuration=    64
   0.91936155  0.12905177  0.00000000
   0.77189664  0.08021364  0.00000000
   0.00055289  0.00164553  0.00000000
Direct configuration=    65
   0.91837737  0.13116892  0.00000000
   0.76050625  0.08569466  0.00000000
   0.00075927  0.99637457  0.00000000
Direct configuration=    66
   0.91722274  0.13313899  0.00000000
   0.75322981  0.09200634  0.00000000
   0.99959334  0.99262834  0.00000000
Direct configuration=    67
   0.91588119  0.13487930  0.00000000
   0.75131022  0.09911233  0.00000000
   0.99607066  0.99176981  0.00000000
Direct configuration=    68
   0.91437049  0.13638476  0.00000000
   0.75465149  0.10674947  0.00000000
   0.99000009  0.99414004  0.00000000
Direct configuration=    69
   0.91275393  0.13772311  0.00000000
   0.76171825  0.11450842  0.00000000
   0.98189061  0.99907571  0.00000000
Direct configuration=    70
   0.91118293  0.13904259  0.00000000
   0.76886712  0.12187658  0.00000000
   0.97296503  0.00471137  0.00000000
Direct configuration=    71
   0.90990426  0.14056718  0.00000000
   0.77038153  0.12842529  0.00000000
   0.96498909  0.00789166  0.00000000
Direct configuration=    72
   0.90901360  0.14244798  0.00000000
   0.76358992  0.13428064  0.00000000
   0.95911035  0.00607296  0.00000000
Direct configuration=    73
   0.90828707  0.14460146  0.00000000
   0.75271825  0.13987057  0.00000000
   0.95468128  0.00014662  0.00000000
Direct configuration=    74
   0.90748533  0.14680834  0.00000000
   0.74307842  0.14528426  0.00000000
   0.95023204  0.99352564  0.00000000
Direct configuration=    75
   0.90648321  0.14889170  0.00000000
   0.73763851  0.15041219  0.00000000
   0.94479734  0.98916157  0.00000000
Direct configuration=    76
   0.90523295  0.15075905  0.00000000
   0.73743193  0.15516784  0.00000000
   0.93809711  0.98862870  0.00000000
Direct configuration=    77
   0.90374105  0.15238689  0.00000000
   0.74218454  0.15956735  0.00000000
   0.93030548  0.99228417  0.00000000
Direct configuration=    78
   0.90208251  0.15381447  0.00000000
   0.75017217  0.16381177  0.00000000
   0.92193878  0.99931092  0.00000000
Direct configuration=    79
   0.90044776  0.15515122  0.00000000
   0.75758650  0.16843893  0.00000000
   0.91377106  0.00741326  0.00000000
Direct configuration=    80
   0.89911845  0.15657009  0.00000000
   0.75913771  0.17438036  0.00000000
   0.90658499  0.01288882  0.00000000
Direct configuration=    81
   0.89818795  0.15821710  0.00000000
   0.75305148  0.18226396  0.00000000
   0.90064238  0.01276254  0.00000000
Direct configuration=    82
   0.89741199  0.16006656  0.00000000
   0.74365353  0.19144659  0.00000000
   0.89553453  0.00809787  0.00000000
Direct configuration=    83
   0.89651718  0.16196090  0.00000000
   0.73580540  0.20065673  0.00000000
   0.89078024  0.00267614  0.00000000
Direct configuration=    84
   0.89535345  0.16376693  0.00000000
   0.73213142  0.20887877  0.00000000
   0.88614702  0.99964969  0.00000000
Direct configuration=    85
   0.89386979  0.16542096  0.00000000
   0.73349712  0.21552939  0.00000000
   0.88158437  0.00062847  0.00000000
Direct configuration=    86
   0.89208710  0.16691489  0.00000000
   0.73955692  0.22045180  0.00000000
   0.87710138  0.00589767  0.00000000
Direct configuration=    87
   0.89010871  0.16828364  0.00000000
   0.74864064  0.22406421  0.00000000
   0.87271357  0.01449436  0.00000000
Direct configuration=    88
   0.88816393  0.16959857  0.00000000
   0.75719506  0.22775967  0.00000000
   0.86832387  0.02387622  0.00000000
Direct configuration=    89
   0.88657366  0.17096211  0.00000000
   0.76045834  0.23385209  0.00000000
   0.86357429  0.03009293  0.00000000
Direct configuration=    90
   0.88546407  0.17248963  0.00000000
   0.75695239  0.24337958  0.00000000
   0.85791439  0.03025459  0.00000000
Direct configuration=    91
   0.88460559  0.17420580  0.00000000
   0.75046032  0.25434303  0.00000000
   0.85123122  0.02596350  0.00000000
Direct configuration=    92
   0.88371324  0.17601751  0.00000000
   0.74506175  0.26409906  0.00000000
   0.84401136  0.02133774  0.00000000
Direct configuration=    93
   0.88261487  0.17782798  0.00000000
   0.74289533  0.27103456  0.00000000
   0.83687003  0.01954264  0.00000000
Direct configuration=    94
   0.88123956  0.17958184  0.00000000
   0.74460911  0.27455312  0.00000000
   0.83028344  0.02206603  0.00000000
Direct configuration=    95
   0.87959276  0.18125581  0.00000000
   0.74984438  0.27486926  0.00000000
   0.82451946  0.02906530  0.00000000
Direct configuration=    96
   0.87776848  0.18284294  0.00000000
   0.75710275  0.27320522  0.00000000
   0.81956244  0.03944390  0.00000000
Direct configuration=    97
   0.87598706  0.18434104  0.00000000
   0.76338975  0.27219196  0.00000000
   0.81488139  0.05059783  0.00000000
Direct configuration=    98
   0.87456650  0.18577792  0.00000000
   0.76494050  0.27538375  0.00000000
   0.80918702  0.05853368  0.00000000
Direct configuration=    99
   0.87360966  0.18725521  0.00000000
   0.76125497  0.28375553  0.00000000
   0.80131284  0.06066209  0.00000000
Direct configuration=   100
   0.87285975  0.18884127  0.00000000
   0.75583134  0.29444317  0.00000000
   0.79187175  0.05873644  0.00000000
