    1    1    1    1
  0.5120000E+03  0.8000000E-09  0.8000000E-09  0.8000000E-09  0.5000000E-15
  1.000000000000000E-004
  CAR 
 O atom                                  
      6      1      8
 
  0.0000000E+00  0.0000000E+00  0.0000000E+00  0.1000000E+01
    1      -23.844047   1.000000
    2       -8.904205   0.666667
    3       -8.904205   0.666667
    4       -8.904205   0.666667
    5       -0.467917   0.000000
    6        1.863028   0.000000
    7        1.863028   0.000000
    8        1.863028   0.000000
