 running on    2 total cores
 distrk:  each k-point on    2 cores,    1 groups
 distr:  one band on    1 cores,    2 groups
 using from now: INCAR     
 vasp.5.4.4.18Apr17-6-g9f103f2a35 (build May 01 2019 15:41:21) complex          
  
 POSCAR found type information on POSCAR  O 
 POSCAR found :  1 types and       1 ions
 scaLAPACK will be used
 LDA part: xc-table for Pade appr. of Perdew
 POSCAR, INCAR and KPOINTS ok, starting setup
 FFT: planning ...
 WAVECAR not read
 WARNING: random wavefunctions but no delay for mixing, default for NELMDL
 entering main loop
       N       E                     dE             d eps       ncg     rms          rms(c)
DAV:   1     0.384683750577E+02    0.38468E+02   -0.96726E+02    16   0.293E+02
DAV:   2     0.346010512500E+01   -0.35008E+02   -0.35008E+02    32   0.454E+01
DAV:   3     0.319432394066E-01   -0.34282E+01   -0.34267E+01    16   0.308E+01
DAV:   4    -0.193947254731E-01   -0.51338E-01   -0.41463E-01    16   0.388E+00
DAV:   5    -0.203546914597E-01   -0.95997E-03   -0.95654E-03    32   0.505E-01    0.307E-01
DAV:   6    -0.213724822609E-01   -0.10178E-02   -0.17849E-03    16   0.332E-01    0.155E-01
DAV:   7    -0.214709366904E-01   -0.98454E-04   -0.23774E-04    16   0.137E-01
   1 F= -.21470937E-01 E0= -.13757821E-01  d E =-.154262E-01
 writing wavefunctions
