   2   2   0   0
  0.2560000E+03  0.8000000E-09  0.8000000E-09  0.8000000E-09  0.5000000E-15
   1.0000000000000000E-004
  CAR 
 O2 dimer in a box                       
      4.04160650    -34.30926950  301     -5.79978756      1.00000000
    -34.309  0.0000E+00  0.0000E+00  0.0000E+00  0.0000E+00
    -34.181  0.0000E+00  0.0000E+00  0.0000E+00  0.0000E+00
    -34.054  0.0000E+00  0.0000E+00  0.0000E+00  0.0000E+00
    -33.926  0.0000E+00  0.0000E+00  0.0000E+00  0.0000E+00
    -33.798  0.0000E+00  0.0000E+00  0.0000E+00  0.0000E+00
    -33.670  0.0000E+00  0.0000E+00  0.0000E+00  0.0000E+00
    -33.542  0.0000E+00  0.0000E+00  0.0000E+00  0.0000E+00
    -33.414  0.4342E-14  0.0000E+00  0.5551E-15  0.0000E+00
    -33.287  0.3770E-11  0.0000E+00  0.4825E-12  0.0000E+00
    -33.159  0.1477E-08  0.0000E+00  0.1894E-09  0.0000E+00
    -33.031  0.2604E-06  0.0000E+00  0.3348E-07  0.0000E+00
    -32.903  0.2073E-04  0.0000E+00  0.2683E-05  0.0000E+00
    -32.775  0.7493E-03  0.0000E+00  0.9847E-04  0.0000E+00
    -32.647  0.1238E-01  0.0000E+00  0.1681E-02  0.0000E+00
    -32.520  0.9404E-01  0.0000E+00  0.1370E-01  0.0000E+00
    -32.392  0.3308E+00  0.0000E+00  0.5599E-01  0.0000E+00
    -32.264  0.5412E+00  0.8685E-16  0.1252E+00  0.1110E-16
    -32.136  0.4128E+00  0.7573E-13  0.1779E+00  0.9692E-14
    -32.008  0.1466E+00  0.4768E-10  0.1967E+00  0.6104E-11
    -31.880  0.2413E-01  0.1347E-07  0.1998E+00  0.1728E-08
    -31.753  0.1831E-02  0.1715E-05  0.2000E+00  0.2209E-06
    -31.625  0.6362E-04  0.9878E-04  0.2000E+00  0.1285E-04
    -31.497  0.1005E-05  0.2591E-02  0.2000E+00  0.3440E-03
    -31.369  0.7188E-08  0.3113E-01  0.2000E+00  0.4323E-02
    -31.241  0.2314E-10  0.1725E+00  0.2000E+00  0.2638E-01
    -31.113  0.3335E-13  0.4436E+00  0.2000E+00  0.8309E-01
    -30.986  0.0000E+00  0.5313E+00  0.2000E+00  0.1510E+00
    -30.858  0.0000E+00  0.2966E+00  0.2000E+00  0.1889E+00
    -30.730  0.0000E+00  0.7696E-01  0.2000E+00  0.1988E+00
    -30.602  0.0000E+00  0.9241E-02  0.2000E+00  0.1999E+00
    -30.474  0.0000E+00  0.5100E-03  0.2000E+00  0.2000E+00
    -30.346  0.0000E+00  0.1285E-04  0.2000E+00  0.2000E+00
    -30.219  0.0000E+00  0.1469E-06  0.2000E+00  0.2000E+00
    -30.091  0.0000E+00  0.7584E-09  0.2000E+00  0.2000E+00
    -29.963  0.0000E+00  0.1760E-11  0.2000E+00  0.2000E+00
    -29.835  0.0000E+00  0.1737E-14  0.2000E+00  0.2000E+00
    -29.707  0.0000E+00  0.0000E+00  0.2000E+00  0.2000E+00
    -29.579  0.0000E+00  0.0000E+00  0.2000E+00  0.2000E+00
    -29.451  0.0000E+00  0.0000E+00  0.2000E+00  0.2000E+00
    -29.324  0.0000E+00  0.0000E+00  0.2000E+00  0.2000E+00
    -29.196  0.0000E+00  0.0000E+00  0.2000E+00  0.2000E+00
    -29.068  0.0000E+00  0.0000E+00  0.2000E+00  0.2000E+00
    -28.940  0.0000E+00  0.0000E+00  0.2000E+00  0.2000E+00
    -28.812  0.0000E+00  0.0000E+00  0.2000E+00  0.2000E+00
    -28.684  0.0000E+00  0.0000E+00  0.2000E+00  0.2000E+00
    -28.557  0.0000E+00  0.0000E+00  0.2000E+00  0.2000E+00
    -28.429  0.0000E+00  0.0000E+00  0.2000E+00  0.2000E+00
    -28.301  0.0000E+00  0.0000E+00  0.2000E+00  0.2000E+00
    -28.173  0.0000E+00  0.0000E+00  0.2000E+00  0.2000E+00
    -28.045  0.0000E+00  0.0000E+00  0.2000E+00  0.2000E+00
    -27.917  0.0000E+00  0.0000E+00  0.2000E+00  0.2000E+00
    -27.790  0.0000E+00  0.0000E+00  0.2000E+00  0.2000E+00
    -27.662  0.0000E+00  0.0000E+00  0.2000E+00  0.2000E+00
    -27.534  0.0000E+00  0.0000E+00  0.2000E+00  0.2000E+00
    -27.406  0.0000E+00  0.0000E+00  0.2000E+00  0.2000E+00
    -27.278  0.0000E+00  0.0000E+00  0.2000E+00  0.2000E+00
    -27.150  0.0000E+00  0.0000E+00  0.2000E+00  0.2000E+00
    -27.023  0.0000E+00  0.0000E+00  0.2000E+00  0.2000E+00
    -26.895  0.0000E+00  0.0000E+00  0.2000E+00  0.2000E+00
    -26.767  0.0000E+00  0.0000E+00  0.2000E+00  0.2000E+00
    -26.639  0.0000E+00  0.0000E+00  0.2000E+00  0.2000E+00
    -26.511  0.0000E+00  0.0000E+00  0.2000E+00  0.2000E+00
    -26.383  0.0000E+00  0.0000E+00  0.2000E+00  0.2000E+00
    -26.256  0.0000E+00  0.0000E+00  0.2000E+00  0.2000E+00
    -26.128  0.0000E+00  0.0000E+00  0.2000E+00  0.2000E+00
    -26.000  0.0000E+00  0.0000E+00  0.2000E+00  0.2000E+00
    -25.872  0.0000E+00  0.0000E+00  0.2000E+00  0.2000E+00
    -25.744  0.0000E+00  0.0000E+00  0.2000E+00  0.2000E+00
    -25.616  0.0000E+00  0.0000E+00  0.2000E+00  0.2000E+00
    -25.489  0.0000E+00  0.0000E+00  0.2000E+00  0.2000E+00
    -25.361  0.0000E+00  0.0000E+00  0.2000E+00  0.2000E+00
    -25.233  0.0000E+00  0.0000E+00  0.2000E+00  0.2000E+00
    -25.105  0.0000E+00  0.0000E+00  0.2000E+00  0.2000E+00
    -24.977  0.0000E+00  0.0000E+00  0.2000E+00  0.2000E+00
    -24.849  0.0000E+00  0.0000E+00  0.2000E+00  0.2000E+00
    -24.722  0.0000E+00  0.0000E+00  0.2000E+00  0.2000E+00
    -24.594  0.0000E+00  0.0000E+00  0.2000E+00  0.2000E+00
    -24.466  0.0000E+00  0.0000E+00  0.2000E+00  0.2000E+00
    -24.338  0.0000E+00  0.0000E+00  0.2000E+00  0.2000E+00
    -24.210  0.0000E+00  0.0000E+00  0.2000E+00  0.2000E+00
    -24.082  0.0000E+00  0.0000E+00  0.2000E+00  0.2000E+00
    -23.955  0.0000E+00  0.0000E+00  0.2000E+00  0.2000E+00
    -23.827  0.0000E+00  0.0000E+00  0.2000E+00  0.2000E+00
    -23.699  0.0000E+00  0.0000E+00  0.2000E+00  0.2000E+00
    -23.571  0.0000E+00  0.0000E+00  0.2000E+00  0.2000E+00
    -23.443  0.0000E+00  0.0000E+00  0.2000E+00  0.2000E+00
    -23.315  0.0000E+00  0.0000E+00  0.2000E+00  0.2000E+00
    -23.188  0.0000E+00  0.0000E+00  0.2000E+00  0.2000E+00
    -23.060  0.0000E+00  0.0000E+00  0.2000E+00  0.2000E+00
    -22.932  0.0000E+00  0.0000E+00  0.2000E+00  0.2000E+00
    -22.804  0.0000E+00  0.0000E+00  0.2000E+00  0.2000E+00
    -22.676  0.0000E+00  0.0000E+00  0.2000E+00  0.2000E+00
    -22.548  0.0000E+00  0.0000E+00  0.2000E+00  0.2000E+00
    -22.420  0.0000E+00  0.0000E+00  0.2000E+00  0.2000E+00
    -22.293  0.0000E+00  0.0000E+00  0.2000E+00  0.2000E+00
    -22.165  0.0000E+00  0.0000E+00  0.2000E+00  0.2000E+00
    -22.037  0.0000E+00  0.0000E+00  0.2000E+00  0.2000E+00
    -21.909  0.0000E+00  0.0000E+00  0.2000E+00  0.2000E+00
    -21.781  0.0000E+00  0.0000E+00  0.2000E+00  0.2000E+00
    -21.653  0.0000E+00  0.0000E+00  0.2000E+00  0.2000E+00
    -21.526  0.3309E-13  0.0000E+00  0.2000E+00  0.2000E+00
    -21.398  0.2295E-10  0.0000E+00  0.2000E+00  0.2000E+00
    -21.270  0.7137E-08  0.0000E+00  0.2000E+00  0.2000E+00
    -21.142  0.9994E-06  0.0000E+00  0.2000E+00  0.2000E+00
    -21.014  0.6331E-04  0.0000E+00  0.2000E+00  0.2000E+00
    -20.886  0.1824E-02  0.0000E+00  0.2002E+00  0.2000E+00
    -20.759  0.2406E-01  0.0000E+00  0.2033E+00  0.2000E+00
    -20.631  0.1463E+00  0.0000E+00  0.2220E+00  0.2000E+00
    -20.503  0.4124E+00  0.0000E+00  0.2747E+00  0.2000E+00
    -20.375  0.5413E+00  0.0000E+00  0.3439E+00  0.2000E+00
    -20.247  0.3312E+00  0.0000E+00  0.3863E+00  0.2000E+00
    -20.119  0.9424E-01  0.0000E+00  0.3983E+00  0.2000E+00
    -19.992  0.1242E-01  0.0000E+00  0.3999E+00  0.2000E+00
    -19.864  0.7525E-03  0.0000E+00  0.4000E+00  0.2000E+00
    -19.736  0.2084E-04  0.2275E-13  0.4000E+00  0.2000E+00
    -19.608  0.2621E-06  0.1648E-10  0.4000E+00  0.2000E+00
    -19.480  0.1489E-08  0.5352E-08  0.4000E+00  0.2000E+00
    -19.352  0.3803E-11  0.7822E-06  0.4000E+00  0.2000E+00
    -19.225  0.4342E-14  0.5170E-04  0.4000E+00  0.2000E+00
    -19.097  0.0000E+00  0.1554E-02  0.4000E+00  0.2002E+00
    -18.969  0.0000E+00  0.2137E-01  0.4000E+00  0.2029E+00
    -18.841  0.0000E+00  0.1354E+00  0.4000E+00  0.2202E+00
    -18.713  0.0000E+00  0.3977E+00  0.4000E+00  0.2711E+00
    -18.585  0.0000E+00  0.5439E+00  0.4000E+00  0.3406E+00
    -18.458  0.0000E+00  0.3467E+00  0.4000E+00  0.3849E+00
    -18.330  0.0000E+00  0.1028E+00  0.4000E+00  0.3981E+00
    -18.202  0.0000E+00  0.1412E-01  0.4000E+00  0.3999E+00
    -18.074  0.0000E+00  0.8922E-03  0.4000E+00  0.4000E+00
    -17.946  0.0000E+00  0.2577E-04  0.4000E+00  0.4000E+00
    -17.818  0.0000E+00  0.3382E-06  0.4000E+00  0.4000E+00
    -17.691  0.0000E+00  0.2005E-08  0.4000E+00  0.4000E+00
    -17.563  0.0000E+00  0.5346E-11  0.4000E+00  0.4000E+00
    -17.435  0.0000E+00  0.6427E-14  0.4000E+00  0.4000E+00
    -17.307  0.0000E+00  0.0000E+00  0.4000E+00  0.4000E+00
    -17.179  0.0000E+00  0.0000E+00  0.4000E+00  0.4000E+00
    -17.051  0.0000E+00  0.0000E+00  0.4000E+00  0.4000E+00
    -16.924  0.0000E+00  0.0000E+00  0.4000E+00  0.4000E+00
    -16.796  0.0000E+00  0.0000E+00  0.4000E+00  0.4000E+00
    -16.668  0.0000E+00  0.0000E+00  0.4000E+00  0.4000E+00
    -16.540  0.0000E+00  0.0000E+00  0.4000E+00  0.4000E+00
    -16.412  0.0000E+00  0.0000E+00  0.4000E+00  0.4000E+00
    -16.284  0.0000E+00  0.0000E+00  0.4000E+00  0.4000E+00
    -16.157  0.0000E+00  0.0000E+00  0.4000E+00  0.4000E+00
    -16.029  0.0000E+00  0.0000E+00  0.4000E+00  0.4000E+00
    -15.901  0.0000E+00  0.0000E+00  0.4000E+00  0.4000E+00
    -15.773  0.0000E+00  0.0000E+00  0.4000E+00  0.4000E+00
    -15.645  0.0000E+00  0.0000E+00  0.4000E+00  0.4000E+00
    -15.517  0.0000E+00  0.0000E+00  0.4000E+00  0.4000E+00
    -15.390  0.0000E+00  0.0000E+00  0.4000E+00  0.4000E+00
    -15.262  0.0000E+00  0.0000E+00  0.4000E+00  0.4000E+00
    -15.134  0.0000E+00  0.0000E+00  0.4000E+00  0.4000E+00
    -15.006  0.0000E+00  0.0000E+00  0.4000E+00  0.4000E+00
    -14.878  0.0000E+00  0.0000E+00  0.4000E+00  0.4000E+00
    -14.750  0.0000E+00  0.0000E+00  0.4000E+00  0.4000E+00
    -14.622  0.0000E+00  0.0000E+00  0.4000E+00  0.4000E+00
    -14.495  0.0000E+00  0.0000E+00  0.4000E+00  0.4000E+00
    -14.367  0.3474E-15  0.0000E+00  0.4000E+00  0.4000E+00
    -14.239  0.3561E-12  0.0000E+00  0.4000E+00  0.4000E+00
    -14.111  0.1866E-09  0.0000E+00  0.4000E+00  0.4000E+00
    -13.983  0.4397E-07  0.0000E+00  0.4000E+00  0.4000E+00
    -13.855  0.4684E-05  0.0000E+00  0.4000E+00  0.4000E+00
    -13.728  0.2275E-03  0.0000E+00  0.4000E+00  0.4000E+00
    -13.600  0.5115E-02  0.0000E+00  0.4007E+00  0.4000E+00
    -13.472  0.5478E-01  0.8685E-16  0.4077E+00  0.4000E+00
    -13.344  0.2938E+00  0.6618E-13  0.4452E+00  0.4000E+00
    -13.216  0.8479E+00  0.4234E-10  0.5536E+00  0.4000E+00
    -13.088  0.1393E+01  0.1215E-07  0.7318E+00  0.4000E+00
    -12.961  0.1292E+01  0.1571E-05  0.8969E+00  0.4000E+00
    -12.833  0.6336E+00  0.9192E-04  0.9779E+00  0.4000E+00
    -12.705  0.1543E+00  0.2448E-02  0.9976E+00  0.4003E+00
    -12.577  0.1790E-01  0.2987E-01  0.9999E+00  0.4041E+00
    -12.449  0.9664E-03  0.1681E+00  0.1000E+01  0.4256E+00
    -12.321  0.2393E-04  0.4387E+00  0.1000E+01  0.4817E+00
    -12.194  0.2695E-06  0.5333E+00  0.1000E+01  0.5499E+00
    -12.066  0.1371E-08  0.3022E+00  0.1000E+01  0.5885E+00
    -11.938  0.3134E-11  0.7962E-01  0.1000E+01  0.5987E+00
    -11.810  0.3127E-14  0.9748E-02  0.1000E+01  0.5999E+00
    -11.682  0.0000E+00  0.2067E-02  0.1000E+01  0.6002E+00
    -11.554  0.0000E+00  0.2507E-01  0.1000E+01  0.6034E+00
    -11.427  0.0000E+00  0.1896E+00  0.1000E+01  0.6276E+00
    -11.299  0.0000E+00  0.6644E+00  0.1000E+01  0.7126E+00
    -11.171  0.0000E+00  0.1083E+01  0.1000E+01  0.8510E+00
    -11.043  0.0000E+00  0.8228E+00  0.1000E+01  0.9562E+00
    -10.915  0.0000E+00  0.2911E+00  0.1000E+01  0.9934E+00
    -10.787  0.0000E+00  0.4774E-01  0.1000E+01  0.9995E+00
    -10.660  0.0000E+00  0.3609E-02  0.1000E+01  0.1000E+01
    -10.532  0.0000E+00  0.1249E-03  0.1000E+01  0.1000E+01
    -10.404  0.0000E+00  0.1966E-05  0.1000E+01  0.1000E+01
    -10.276  0.0000E+00  0.1400E-07  0.1000E+01  0.1000E+01
    -10.148  0.0000E+00  0.4487E-10  0.1000E+01  0.1000E+01
    -10.020  0.0000E+00  0.6461E-13  0.1000E+01  0.1000E+01
     -9.893  0.0000E+00  0.0000E+00  0.1000E+01  0.1000E+01
     -9.765  0.0000E+00  0.0000E+00  0.1000E+01  0.1000E+01
     -9.637  0.0000E+00  0.0000E+00  0.1000E+01  0.1000E+01
     -9.509  0.0000E+00  0.0000E+00  0.1000E+01  0.1000E+01
     -9.381  0.0000E+00  0.0000E+00  0.1000E+01  0.1000E+01
     -9.253  0.0000E+00  0.0000E+00  0.1000E+01  0.1000E+01
     -9.126  0.0000E+00  0.0000E+00  0.1000E+01  0.1000E+01
     -8.998  0.0000E+00  0.0000E+00  0.1000E+01  0.1000E+01
     -8.870  0.0000E+00  0.0000E+00  0.1000E+01  0.1000E+01
     -8.742  0.0000E+00  0.0000E+00  0.1000E+01  0.1000E+01
     -8.614  0.0000E+00  0.0000E+00  0.1000E+01  0.1000E+01
     -8.486  0.0000E+00  0.0000E+00  0.1000E+01  0.1000E+01
     -8.359  0.0000E+00  0.0000E+00  0.1000E+01  0.1000E+01
     -8.231  0.0000E+00  0.0000E+00  0.1000E+01  0.1000E+01
     -8.103  0.0000E+00  0.0000E+00  0.1000E+01  0.1000E+01
     -7.975  0.0000E+00  0.0000E+00  0.1000E+01  0.1000E+01
     -7.847  0.1546E-13  0.0000E+00  0.1000E+01  0.1000E+01
     -7.719  0.1267E-10  0.0000E+00  0.1000E+01  0.1000E+01
     -7.591  0.4650E-08  0.0000E+00  0.1000E+01  0.1000E+01
     -7.464  0.7677E-06  0.0000E+00  0.1000E+01  0.1000E+01
     -7.336  0.5728E-04  0.0000E+00  0.1000E+01  0.1000E+01
     -7.208  0.1941E-02  0.0000E+00  0.1000E+01  0.1000E+01
     -7.080  0.3008E-01  0.0000E+00  0.1004E+01  0.1000E+01
     -6.952  0.2146E+00  0.0000E+00  0.1032E+01  0.1000E+01
     -6.824  0.7088E+00  0.0000E+00  0.1122E+01  0.1000E+01
     -6.697  0.1089E+01  0.0000E+00  0.1261E+01  0.1000E+01
     -6.569  0.7806E+00  0.0000E+00  0.1361E+01  0.1000E+01
     -6.441  0.2603E+00  0.0000E+00  0.1394E+01  0.1000E+01
     -6.313  0.4024E-01  0.0000E+00  0.1400E+01  0.1000E+01
     -6.185  0.2865E-02  0.0000E+00  0.1400E+01  0.1000E+01
     -6.057  0.9335E-04  0.0000E+00  0.1400E+01  0.1000E+01
     -5.930  0.1383E-05  0.0000E+00  0.1400E+01  0.1000E+01
     -5.802  0.9261E-08  0.0000E+00  0.1400E+01  0.1000E+01
     -5.674  0.2792E-10  0.0000E+00  0.1400E+01  0.1000E+01
     -5.546  0.3752E-13  0.6809E-13  0.1400E+01  0.1000E+01
     -5.418  0.0000E+00  0.4702E-10  0.1400E+01  0.1000E+01
     -5.290  0.0000E+00  0.1458E-07  0.1400E+01  0.1000E+01
     -5.163  0.0000E+00  0.2035E-05  0.1400E+01  0.1000E+01
     -5.035  0.0000E+00  0.1285E-03  0.1400E+01  0.1000E+01
     -4.907  0.0000E+00  0.3691E-02  0.1400E+01  0.1000E+01
     -4.779  0.0000E+00  0.4854E-01  0.1400E+01  0.1007E+01
     -4.651  0.0000E+00  0.2942E+00  0.1400E+01  0.1044E+01
     -4.523  0.0000E+00  0.8269E+00  0.1400E+01  0.1150E+01
     -4.396  0.0000E+00  0.1082E+01  0.1400E+01  0.1288E+01
     -4.268  0.0000E+00  0.6600E+00  0.1400E+01  0.1373E+01
     -4.140  0.0000E+00  0.1873E+00  0.1400E+01  0.1397E+01
     -4.012  0.0000E+00  0.2460E-01  0.1400E+01  0.1400E+01
     -3.884  0.0000E+00  0.1486E-02  0.1400E+01  0.1400E+01
     -3.756  0.0000E+00  0.4102E-04  0.1400E+01  0.1400E+01
     -3.629  0.0000E+00  0.5143E-06  0.1400E+01  0.1400E+01
     -3.501  0.0000E+00  0.2912E-08  0.1400E+01  0.1400E+01
     -3.373  0.0000E+00  0.7415E-11  0.1400E+01  0.1400E+01
     -3.245  0.0000E+00  0.8337E-14  0.1400E+01  0.1400E+01
     -3.117  0.0000E+00  0.0000E+00  0.1400E+01  0.1400E+01
     -2.989  0.0000E+00  0.0000E+00  0.1400E+01  0.1400E+01
     -2.862  0.0000E+00  0.0000E+00  0.1400E+01  0.1400E+01
     -2.734  0.0000E+00  0.0000E+00  0.1400E+01  0.1400E+01
     -2.606  0.0000E+00  0.0000E+00  0.1400E+01  0.1400E+01
     -2.478  0.0000E+00  0.0000E+00  0.1400E+01  0.1400E+01
     -2.350  0.0000E+00  0.0000E+00  0.1400E+01  0.1400E+01
     -2.222  0.0000E+00  0.0000E+00  0.1400E+01  0.1400E+01
     -2.095  0.0000E+00  0.0000E+00  0.1400E+01  0.1400E+01
     -1.967  0.0000E+00  0.0000E+00  0.1400E+01  0.1400E+01
     -1.839  0.0000E+00  0.0000E+00  0.1400E+01  0.1400E+01
     -1.711  0.0000E+00  0.0000E+00  0.1400E+01  0.1400E+01
     -1.583  0.8685E-16  0.0000E+00  0.1400E+01  0.1400E+01
     -1.455  0.1027E-12  0.8685E-16  0.1400E+01  0.1400E+01
     -1.328  0.6236E-10  0.6965E-13  0.1400E+01  0.1400E+01
     -1.200  0.1700E-07  0.4432E-10  0.1400E+01  0.1400E+01
     -1.072  0.2089E-05  0.1264E-07  0.1400E+01  0.1400E+01
     -0.944  0.1162E-03  0.1625E-05  0.1400E+01  0.1400E+01
     -0.816  0.2942E-02  0.9451E-04  0.1400E+01  0.1400E+01
     -0.688  0.3415E-01  0.2502E-02  0.1405E+01  0.1400E+01
     -0.560  0.1829E+00  0.3035E-01  0.1428E+01  0.1404E+01
     -0.433  0.4545E+00  0.1698E+00  0.1486E+01  0.1426E+01
     -0.305  0.5261E+00  0.4406E+00  0.1553E+01  0.1482E+01
     -0.177  0.2839E+00  0.5325E+00  0.1590E+01  0.1550E+01
     -0.049  0.7119E-01  0.3000E+00  0.1599E+01  0.1589E+01
      0.079  0.8258E-02  0.7859E-01  0.1600E+01  0.1599E+01
      0.207  0.4401E-03  0.9524E-02  0.1600E+01  0.1600E+01
      0.334  0.1071E-04  0.5306E-03  0.1600E+01  0.1600E+01
      0.462  0.1184E-06  0.1350E-04  0.1600E+01  0.1600E+01
      0.590  0.5886E-07  0.1558E-06  0.1600E+01  0.1600E+01
      0.718  0.5912E-05  0.8126E-09  0.1600E+01  0.1600E+01
      0.846  0.2719E-03  0.3185E-09  0.1600E+01  0.1600E+01
      0.974  0.5702E-02  0.6929E-07  0.1601E+01  0.1600E+01
      1.101  0.5491E-01  0.6843E-05  0.1608E+01  0.1600E+01
      1.229  0.2445E+00  0.3068E-03  0.1639E+01  0.1600E+01
      1.357  0.5104E+00  0.6304E-02  0.1704E+01  0.1601E+01
      1.485  0.5521E+00  0.6052E-01  0.1775E+01  0.1609E+01
      1.613  0.5812E+00  0.2851E+00  0.1849E+01  0.1645E+01
      1.741  0.1007E+01  0.7472E+00  0.1978E+01  0.1741E+01
      1.868  0.1325E+01  0.1331E+01  0.2147E+01  0.1911E+01
      1.996  0.1096E+01  0.1711E+01  0.2287E+01  0.2129E+01
      2.124  0.6187E+00  0.1368E+01  0.2367E+01  0.2304E+01
      2.252  0.2176E+00  0.5975E+00  0.2394E+01  0.2381E+01
      2.380  0.4043E-01  0.1350E+00  0.2400E+01  0.2398E+01
      2.508  0.3619E-02  0.1530E-01  0.2400E+01  0.2400E+01
      2.635  0.1504E-03  0.8449E-03  0.2400E+01  0.2400E+01
      2.763  0.2857E-05  0.2215E-04  0.2400E+01  0.2400E+01
      2.891  0.2461E-07  0.2700E-06  0.2400E+01  0.2400E+01
      3.019  0.9553E-10  0.1506E-08  0.2400E+01  0.2400E+01
      3.147  0.1667E-12  0.3810E-11  0.2400E+01  0.2400E+01
      3.275  0.0000E+00  0.4342E-14  0.2400E+01  0.2400E+01
      3.402  0.0000E+00  0.0000E+00  0.2400E+01  0.2400E+01
      3.530  0.0000E+00  0.0000E+00  0.2400E+01  0.2400E+01
      3.658  0.0000E+00  0.0000E+00  0.2400E+01  0.2400E+01
      3.786  0.0000E+00  0.0000E+00  0.2400E+01  0.2400E+01
      3.914  0.0000E+00  0.0000E+00  0.2400E+01  0.2400E+01
      4.042  0.0000E+00  0.0000E+00  0.2400E+01  0.2400E+01
