    2    2    5    2
  0.2560000E+03  0.8000000E-09  0.8000000E-09  0.8000000E-09  0.5000000E-15
   1.0000000000000000E-004
  CAR 
 O2 dimer in a box                       
     12      1     12

  0.0000000E+00  0.0000000E+00  0.0000000E+00  0.1000000E+01
    1      -32.309270    -31.083158   1.000000   1.000000
    2      -20.457402    -18.660834   1.000000   1.000000
    3      -13.215371    -12.288720   1.000000   1.000000
    4      -13.060535    -11.216928   1.000000   1.000000
    5      -13.060535    -11.216928   1.000000   1.000000
    6       -6.752484     -4.478379   1.000000   0.000000
    7       -6.752484     -4.478379   1.000000   0.000000
    8       -0.408153     -0.273078   0.000000   0.000000
    9        1.350759      1.729848   0.000000   0.000000
   10        1.767695      1.941194   0.000000   0.000000
   11        1.767695      1.941194   0.000000   0.000000
   12        1.980833      2.041607   0.000000   0.000000
