 running on    4 total cores
 distrk:  each k-point on    4 cores,    1 groups
 distr:  one band on    1 cores,    4 groups
 using from now: INCAR     
 vasp.5.4.4.18Apr17-6-g9f103f2a35 (build Dec 28 2021 15:39:15) complex           
 POSCAR found :  1 types and       2 ions
 scaLAPACK will be used
 LDA part: xc-table for Pade appr. of Perdew
 POSCAR, INCAR and KPOINTS ok, starting setup
 FFT: planning ...
 WAVECAR not read
 entering main loop
       N       E                     dE             d eps       ncg     rms          rms(c)
DAV:   1     0.575490129128E+02    0.57549E+02   -0.31474E+03    64   0.488E+02
DAV:   2     0.691295320089E+01   -0.50636E+02   -0.49748E+02    64   0.126E+02
DAV:   3    -0.840968666975E+01   -0.15323E+02   -0.15099E+02    80   0.425E+01
DAV:   4    -0.977669888200E+01   -0.13670E+01   -0.13289E+01    72   0.954E+00
DAV:   5    -0.981043627329E+01   -0.33737E-01   -0.33737E-01    48   0.158E+00    0.633E+00
DAV:   6    -0.962868396347E+01    0.18175E+00   -0.11193E+00    48   0.902E+00    0.293E+00
DAV:   7    -0.984672725668E+01   -0.21804E+00   -0.20148E-01    56   0.404E+00    0.140E+00
DAV:   8    -0.984427890314E+01    0.24484E-02   -0.70700E-02    56   0.208E+00    0.401E-01
DAV:   9    -0.985180428712E+01   -0.75254E-02   -0.50877E-03    60   0.614E-01    0.189E-01
DAV:  10    -0.985289447767E+01   -0.10902E-02   -0.65357E-04    48   0.233E-01    0.418E-02
DAV:  11    -0.985305622286E+01   -0.16175E-03   -0.58553E-05    56   0.683E-02    0.146E-02
DAV:  12    -0.985321863176E+01   -0.16241E-03   -0.21616E-05    48   0.371E-02    0.831E-03
DAV:  13    -0.985334341682E+01   -0.12479E-03   -0.64858E-06    48   0.218E-02    0.486E-03
DAV:  14    -0.985349659572E+01   -0.15318E-03   -0.63330E-06    48   0.173E-02    0.391E-03
DAV:  15    -0.985357012376E+01   -0.73528E-04   -0.28388E-06    60   0.103E-02
   1 F= -.98535701E+01 E0= -.98535701E+01  d E =-.985357E+01  mag=     2.0000
 curvature:   0.00 expect dE= 0.000E+00 dE for cont linesearch  0.000E+00
 trial: gam= 0.00000 g(F)=  0.113E+00 g(S)=  0.000E+00 ort = 0.000E+00 (trialstep = 0.100E+01)
 search vector abs. value=  0.113E+00
 bond charge predicted
       N       E                     dE             d eps       ncg     rms          rms(c)
DAV:   1    -0.959623124867E+01    0.25727E+00   -0.33283E+01    64   0.468E+01    0.216E+00
DAV:   2    -0.960658629444E+01   -0.10355E-01   -0.41056E-01    64   0.568E+00    0.837E-01
DAV:   3    -0.961833034626E+01   -0.11744E-01   -0.20453E-02    64   0.135E+00    0.339E-01
DAV:   4    -0.962140349410E+01   -0.30731E-02   -0.42548E-03    52   0.542E-01    0.121E-01
DAV:   5    -0.962264742162E+01   -0.12439E-02   -0.23794E-04    56   0.151E-01    0.604E-02
DAV:   6    -0.962304349926E+01   -0.39608E-03   -0.86905E-05    52   0.855E-02    0.132E-02
DAV:   7    -0.962316103564E+01   -0.11754E-03   -0.13163E-05    52   0.357E-02    0.598E-03
DAV:   8    -0.962326635074E+01   -0.10532E-03   -0.65011E-06    56   0.210E-02    0.403E-03
DAV:   9    -0.962338285974E+01   -0.11651E-03   -0.78665E-06    52   0.193E-02    0.224E-03
DAV:  10    -0.962343476872E+01   -0.51909E-04   -0.29500E-06    52   0.121E-02
   2 F= -.96234348E+01 E0= -.96234348E+01  d E =0.230135E+00  mag=     2.0000
 trial-energy change:    0.230135  1 .order    0.190743   -0.113417    0.494903
 step:   0.1397(harm=  0.1864)  dis= 0.00731  next Energy=    -9.861387 (dE=-0.782E-02)
 bond charge predicted
       N       E                     dE             d eps       ncg     rms          rms(c)
DAV:   1    -0.981614179270E+01   -0.19276E+00   -0.23930E+01    64   0.406E+01    0.178E+00
DAV:   2    -0.984690539482E+01   -0.30764E-01   -0.51622E-01    60   0.558E+00    0.851E-01
DAV:   3    -0.985731685453E+01   -0.10411E-01   -0.19478E-02    60   0.123E+00    0.372E-01
DAV:   4    -0.985999992377E+01   -0.26831E-02   -0.91198E-03    56   0.721E-01    0.120E-01
DAV:   5    -0.986066775871E+01   -0.66783E-03   -0.51207E-04    56   0.212E-01    0.624E-02
DAV:   6    -0.986080656004E+01   -0.13880E-03   -0.74328E-05    56   0.863E-02    0.210E-02
DAV:   7    -0.986095783116E+01   -0.15127E-03   -0.21581E-05    56   0.500E-02    0.557E-03
DAV:   8    -0.986103462161E+01   -0.76790E-04   -0.35411E-06    60   0.167E-02
   3 F= -.98610346E+01 E0= -.98610346E+01  d E =-.746450E-02  mag=     2.0000
 curvature:  -0.09 expect dE=-0.548E-05 dE for cont linesearch -0.548E-05
 trial: gam= 0.00000 g(F)=  0.589E-04 g(S)=  0.000E+00 ort =-0.259E-02 (trialstep = 0.828E+00)
 search vector abs. value=  0.589E-04
 reached required accuracy - stopping structural energy minimisation
 writing wavefunctions
