O2 dimer in a box                       
           1
     8.000000    0.000000    0.000000
     0.000000    8.000000    0.000000
     0.000000    0.000000    8.000000
   O 
   2
Direct configuration=     1
   0.00000000  0.00000000  0.00000000
   0.00000000  0.00000000  0.15250000
Direct configuration=     2
  -0.00000000 -0.00000000 -0.00653807
   0.00000000  0.00000000  0.15903807
Direct configuration=     3
  -0.00000000 -0.00000000 -0.00091361
   0.00000000  0.00000000  0.15341361
