 Entering Gaussian System, Link 0=g16
 Input=20171016_84008-04-8_gas_iso2.gjf
 Output=20171016_84008-04-8_gas_iso2.log
 Initial command:
 /share/home/donghao/quantum/g16/l1.exe "/share/home/donghao/tmp/Gau-22447.inp" -scrdir="/share/home/donghao/tmp/"
 Entering Link 1 = /share/home/donghao/quantum/g16/l1.exe PID=     22448.
  
 Copyright (c) 1988,1990,1992,1993,1995,1998,2003,2009,2016,
            Gaussian, Inc.  All Rights Reserved.
  
 This is part of the Gaussian(R) 16 program.  It is based on
 the Gaussian(R) 09 system (copyright 2009, Gaussian, Inc.),
 the Gaussian(R) 03 system (copyright 2003, Gaussian, Inc.),
 the Gaussian(R) 98 system (copyright 1998, Gaussian, Inc.),
 the Gaussian(R) 94 system (copyright 1995, Gaussian, Inc.),
 the Gaussian 92(TM) system (copyright 1992, Gaussian, Inc.),
 the Gaussian 90(TM) system (copyright 1990, Gaussian, Inc.),
 the Gaussian 88(TM) system (copyright 1988, Gaussian, Inc.),
 the Gaussian 86(TM) system (copyright 1986, Carnegie Mellon
 University), and the Gaussian 82(TM) system (copyright 1983,
 Carnegie Mellon University). Gaussian is a federally registered
 trademark of Gaussian, Inc.
  
 This software contains proprietary and confidential information,
 including trade secrets, belonging to Gaussian, Inc.
  
 This software is provided under written license and may be
 used, copied, transmitted, or stored only in accord with that
 written license.
  
 The following legend is applicable only to US Government
 contracts under FAR:
  
                    RESTRICTED RIGHTS LEGEND
  
 Use, reproduction and disclosure by the US Government is
 subject to restrictions as set forth in subparagraphs (a)
 and (c) of the Commercial Computer Software - Restricted
 Rights clause in FAR 52.227-19.
  
 Gaussian, Inc.
 340 Quinnipiac St., Bldg. 40, Wallingford CT 06492
  
  
 ---------------------------------------------------------------
 Warning -- This program may not be used in any manner that
 competes with the business of Gaussian, Inc. or will provide
 assistance to any competitor of Gaussian, Inc.  The licensee
 of this program is prohibited from giving any competitor of
 Gaussian, Inc. access to this program.  By using this program,
 the user acknowledges that Gaussian, Inc. is engaged in the
 business of creating and licensing software in the field of
 computational chemistry and represents and warrants to the
 licensee that it is not a competitor of Gaussian, Inc. and that
 it will not use this program in any manner prohibited above.
 ---------------------------------------------------------------
  

 Cite this work as:
 Gaussian 16, Revision A.03,
 M. J. Frisch, G. W. Trucks, H. B. Schlegel, G. E. Scuseria, 
 M. A. Robb, J. R. Cheeseman, G. Scalmani, V. Barone, 
 G. A. Petersson, H. Nakatsuji, X. Li, M. Caricato, A. V. Marenich, 
 J. Bloino, B. G. Janesko, R. Gomperts, B. Mennucci, H. P. Hratchian, 
 J. V. Ortiz, A. F. Izmaylov, J. L. Sonnenberg, D. Williams-Young, 
 F. Ding, F. Lipparini, F. Egidi, J. Goings, B. Peng, A. Petrone, 
 T. Henderson, D. Ranasinghe, V. G. Zakrzewski, J. Gao, N. Rega, 
 G. Zheng, W. Liang, M. Hada, M. Ehara, K. Toyota, R. Fukuda, 
 J. Hasegawa, M. Ishida, T. Nakajima, Y. Honda, O. Kitao, H. Nakai, 
 T. Vreven, K. Throssell, J. A. Montgomery, Jr., J. E. Peralta, 
 F. Ogliaro, M. J. Bearpark, J. J. Heyd, E. N. Brothers, K. N. Kudin, 
 V. N. Staroverov, T. A. Keith, R. Kobayashi, J. Normand, 
 K. Raghavachari, A. P. Rendell, J. C. Burant, S. S. Iyengar, 
 J. Tomasi, M. Cossi, J. M. Millam, M. Klene, C. Adamo, R. Cammi, 
 J. W. Ochterski, R. L. Martin, K. Morokuma, O. Farkas, 
 J. B. Foresman, and D. J. Fox, Gaussian, Inc., Wallingford CT, 2016.
 
 ******************************************
 Gaussian 16:  ES64L-G16RevA.03 25-Dec-2016
                16-Oct-2017 
 ******************************************
 %chk=20171016_84008-04-8_gas_iso2.chk
 %mem=4GB
 %nprocs=24
 Will use up to   24 processors via shared memory.
 ------------------------------
 # opt freq 6-311++g(d,p) m062x
 ------------------------------
 1/18=20,19=15,26=3,38=1/1,3;
 2/9=110,12=2,17=6,18=5,40=1/2;
 3/5=4,6=6,7=1111,11=2,25=1,30=1,71=1,74=-55/1,2,3;
 4//1;
 5/5=2,38=5/2;
 6/7=2,8=2,9=2,10=2,28=1/1;
 7//1,2,3,16;
 1/18=20,19=15,26=3/3(2);
 2/9=110/2;
 99//99;
 2/9=110/2;
 3/5=4,6=6,7=1111,11=2,25=1,30=1,71=1,74=-55/1,2,3;
 4/5=5,16=3,69=1/1;
 5/5=2,38=5/2;
 7//1,2,3,16;
 1/18=20,19=15,26=3/3(-5);
 2/9=110/2;
 6/7=2,8=2,9=2,10=2,19=2,28=1/1;
 99/9=1/99;
 ----------
 [No Title]
 ----------
 Symbolic Z-matrix:
 Charge =  0 Multiplicity = 1
 O                    -0.24317   0.93585  -0.3457 
 B                    -0.78142  -0.37203   0.28268 
 C                     0.88538  -2.28515   0.91087 
 C                     1.55208  -3.49795   0.68361 
 C                     1.30819  -4.21359  -0.48695 
 C                     0.38529  -3.72927  -1.42385 
 C                    -0.29904  -2.52702  -1.18219 
 C                    -0.03486  -1.80627  -0.02096 
 C                    -1.92987  -0.11498   2.6482 
 C                    -2.10541  -0.31875   1.28083 
 C                    -3.39549  -0.47104   0.74264 
 C                    -4.52113  -0.35652   1.5847 
 C                    -4.3516   -0.07318   2.93578 
 C                    -3.0609    0.00312   3.47555 
 C                    -0.95709   1.48685  -1.27525 
 Br                    2.26128  -5.84444  -0.76987 
 C                    -0.51659   2.69631  -2.11164 
 O                    -2.09422   1.00208  -1.61885 
 C                    -0.68016   3.95865  -1.21212 
 Br                   -5.86386   0.22609   4.0669 
 O                     0.23895   3.87477  -0.12717 
 H                     1.07454  -1.72589   1.78817 
 H                     2.2459   -3.87829   1.39077 
 H                     0.20203  -4.27744  -2.3337 
 H                    -1.01203  -2.1667   -1.89084 
 H                    -0.93896  -0.0578    3.04348 
 H                    -3.52476  -0.66341  -0.3032 
 H                    -5.51131  -0.48757   1.18524 
 H                    -2.92844   0.15558   4.52205 
 H                    -0.48106   4.845    -1.77589 
 H                    -1.66277   4.00883  -0.84562 
 H                     0.13207   4.65102   0.4648 
 H                    -1.13545   2.78434  -2.98007 
 N                     0.88989   2.54415  -2.51111 
 H                     0.93492   2.22759  -3.45861 
 H                     1.35621   3.42517  -2.43149 
 

 GradGradGradGradGradGradGradGradGradGradGradGradGradGradGradGradGradGrad
 Berny optimization.
 Initialization pass.
                           ----------------------------
                           !    Initial Parameters    !
                           ! (Angstroms and Degrees)  !
 --------------------------                            --------------------------
 ! Name  Definition              Value          Derivative Info.                !
 --------------------------------------------------------------------------------
 ! R1    R(1,2)                  1.5476         estimate D2E/DX2                !
 ! R2    R(1,15)                 1.2951         estimate D2E/DX2                !
 ! R3    R(2,8)                  1.6452         estimate D2E/DX2                !
 ! R4    R(2,10)                 1.6589         estimate D2E/DX2                !
 ! R5    R(3,4)                  1.4025         estimate D2E/DX2                !
 ! R6    R(3,8)                  1.3944         estimate D2E/DX2                !
 ! R7    R(3,22)                 1.0575         estimate D2E/DX2                !
 ! R8    R(4,5)                  1.3935         estimate D2E/DX2                !
 ! R9    R(4,23)                 1.0612         estimate D2E/DX2                !
 ! R10   R(5,6)                  1.4015         estimate D2E/DX2                !
 ! R11   R(5,16)                 1.91           estimate D2E/DX2                !
 ! R12   R(6,7)                  1.4043         estimate D2E/DX2                !
 ! R13   R(6,24)                 1.0779         estimate D2E/DX2                !
 ! R14   R(7,8)                  1.392          estimate D2E/DX2                !
 ! R15   R(7,25)                 1.0679         estimate D2E/DX2                !
 ! R16   R(9,10)                 1.3936         estimate D2E/DX2                !
 ! R17   R(9,14)                 1.4063         estimate D2E/DX2                !
 ! R18   R(9,26)                 1.0684         estimate D2E/DX2                !
 ! R19   R(10,11)                1.4061         estimate D2E/DX2                !
 ! R20   R(11,12)                1.4104         estimate D2E/DX2                !
 ! R21   R(11,27)                1.0712         estimate D2E/DX2                !
 ! R22   R(12,13)                1.3908         estimate D2E/DX2                !
 ! R23   R(12,28)                1.0757         estimate D2E/DX2                !
 ! R24   R(13,14)                1.4011         estimate D2E/DX2                !
 ! R25   R(13,20)                1.912          estimate D2E/DX2                !
 ! R26   R(14,29)                1.0658         estimate D2E/DX2                !
 ! R27   R(15,17)                1.5351         estimate D2E/DX2                !
 ! R28   R(15,18)                1.283          estimate D2E/DX2                !
 ! R29   R(17,19)                1.5587         estimate D2E/DX2                !
 ! R30   R(17,33)                1.07           estimate D2E/DX2                !
 ! R31   R(17,34)                1.47           estimate D2E/DX2                !
 ! R32   R(19,21)                1.4244         estimate D2E/DX2                !
 ! R33   R(19,30)                1.0692         estimate D2E/DX2                !
 ! R34   R(19,31)                1.0499         estimate D2E/DX2                !
 ! R35   R(21,32)                0.982          estimate D2E/DX2                !
 ! R36   R(34,35)                1.0            estimate D2E/DX2                !
 ! R37   R(34,36)                1.0            estimate D2E/DX2                !
 ! A1    A(2,1,15)             117.3382         estimate D2E/DX2                !
 ! A2    A(1,2,8)              120.2636         estimate D2E/DX2                !
 ! A3    A(1,2,10)             119.652          estimate D2E/DX2                !
 ! A4    A(8,2,10)             120.08           estimate D2E/DX2                !
 ! A5    A(4,3,8)              120.1587         estimate D2E/DX2                !
 ! A6    A(4,3,22)             120.4465         estimate D2E/DX2                !
 ! A7    A(8,3,22)             119.3948         estimate D2E/DX2                !
 ! A8    A(3,4,5)              119.802          estimate D2E/DX2                !
 ! A9    A(3,4,23)             120.8474         estimate D2E/DX2                !
 ! A10   A(5,4,23)             119.35           estimate D2E/DX2                !
 ! A11   A(4,5,6)              119.9569         estimate D2E/DX2                !
 ! A12   A(4,5,16)             118.3978         estimate D2E/DX2                !
 ! A13   A(6,5,16)             121.645          estimate D2E/DX2                !
 ! A14   A(5,6,7)              120.1136         estimate D2E/DX2                !
 ! A15   A(5,6,24)             120.0329         estimate D2E/DX2                !
 ! A16   A(7,6,24)             119.8531         estimate D2E/DX2                !
 ! A17   A(6,7,8)              119.6263         estimate D2E/DX2                !
 ! A18   A(6,7,25)             120.0019         estimate D2E/DX2                !
 ! A19   A(8,7,25)             120.3701         estimate D2E/DX2                !
 ! A20   A(2,8,3)              118.3932         estimate D2E/DX2                !
 ! A21   A(2,8,7)              121.2808         estimate D2E/DX2                !
 ! A22   A(3,8,7)              120.3236         estimate D2E/DX2                !
 ! A23   A(10,9,14)            119.2238         estimate D2E/DX2                !
 ! A24   A(10,9,26)            119.1889         estimate D2E/DX2                !
 ! A25   A(14,9,26)            121.5864         estimate D2E/DX2                !
 ! A26   A(2,10,9)             119.6386         estimate D2E/DX2                !
 ! A27   A(2,10,11)            119.8982         estimate D2E/DX2                !
 ! A28   A(9,10,11)            120.4621         estimate D2E/DX2                !
 ! A29   A(10,11,12)           119.6647         estimate D2E/DX2                !
 ! A30   A(10,11,27)           120.2556         estimate D2E/DX2                !
 ! A31   A(12,11,27)           120.077          estimate D2E/DX2                !
 ! A32   A(11,12,13)           119.949          estimate D2E/DX2                !
 ! A33   A(11,12,28)           120.2006         estimate D2E/DX2                !
 ! A34   A(13,12,28)           119.8504         estimate D2E/DX2                !
 ! A35   A(12,13,14)           119.8426         estimate D2E/DX2                !
 ! A36   A(12,13,20)           120.6734         estimate D2E/DX2                !
 ! A37   A(14,13,20)           119.4828         estimate D2E/DX2                !
 ! A38   A(9,14,13)            120.6415         estimate D2E/DX2                !
 ! A39   A(9,14,29)            119.3214         estimate D2E/DX2                !
 ! A40   A(13,14,29)           120.0367         estimate D2E/DX2                !
 ! A41   A(1,15,17)            124.6165         estimate D2E/DX2                !
 ! A42   A(1,15,18)            121.3337         estimate D2E/DX2                !
 ! A43   A(17,15,18)           113.9611         estimate D2E/DX2                !
 ! A44   A(15,17,19)           107.0704         estimate D2E/DX2                !
 ! A45   A(15,17,33)           109.942          estimate D2E/DX2                !
 ! A46   A(15,17,34)           109.942          estimate D2E/DX2                !
 ! A47   A(19,17,33)           109.942          estimate D2E/DX2                !
 ! A48   A(19,17,34)           109.942          estimate D2E/DX2                !
 ! A49   A(33,17,34)           109.9587         estimate D2E/DX2                !
 ! A50   A(17,19,21)           108.9159         estimate D2E/DX2                !
 ! A51   A(17,19,30)           110.3382         estimate D2E/DX2                !
 ! A52   A(17,19,31)           109.7781         estimate D2E/DX2                !
 ! A53   A(21,19,30)           109.2869         estimate D2E/DX2                !
 ! A54   A(21,19,31)           109.9263         estimate D2E/DX2                !
 ! A55   A(30,19,31)           108.5855         estimate D2E/DX2                !
 ! A56   A(19,21,32)           110.0216         estimate D2E/DX2                !
 ! A57   A(17,34,35)           109.4712         estimate D2E/DX2                !
 ! A58   A(17,34,36)           109.4712         estimate D2E/DX2                !
 ! A59   A(35,34,36)           109.4713         estimate D2E/DX2                !
 ! D1    D(15,1,2,8)           109.5797         estimate D2E/DX2                !
 ! D2    D(15,1,2,10)          -71.1863         estimate D2E/DX2                !
 ! D3    D(2,1,15,17)         -173.2516         estimate D2E/DX2                !
 ! D4    D(2,1,15,18)            3.1142         estimate D2E/DX2                !
 ! D5    D(1,2,8,3)             96.9833         estimate D2E/DX2                !
 ! D6    D(1,2,8,7)            -82.4626         estimate D2E/DX2                !
 ! D7    D(10,2,8,3)           -82.2474         estimate D2E/DX2                !
 ! D8    D(10,2,8,7)            98.3067         estimate D2E/DX2                !
 ! D9    D(1,2,10,9)           -88.9653         estimate D2E/DX2                !
 ! D10   D(1,2,10,11)           90.6542         estimate D2E/DX2                !
 ! D11   D(8,2,10,9)            90.2701         estimate D2E/DX2                !
 ! D12   D(8,2,10,11)          -90.1104         estimate D2E/DX2                !
 ! D13   D(8,3,4,5)              1.0161         estimate D2E/DX2                !
 ! D14   D(8,3,4,23)          -179.2683         estimate D2E/DX2                !
 ! D15   D(22,3,4,5)          -178.9934         estimate D2E/DX2                !
 ! D16   D(22,3,4,23)            0.7222         estimate D2E/DX2                !
 ! D17   D(4,3,8,2)           -179.436          estimate D2E/DX2                !
 ! D18   D(4,3,8,7)              0.0154         estimate D2E/DX2                !
 ! D19   D(22,3,8,2)             0.5734         estimate D2E/DX2                !
 ! D20   D(22,3,8,7)          -179.9752         estimate D2E/DX2                !
 ! D21   D(3,4,5,6)             -0.8659         estimate D2E/DX2                !
 ! D22   D(3,4,5,16)           178.9223         estimate D2E/DX2                !
 ! D23   D(23,4,5,6)           179.4143         estimate D2E/DX2                !
 ! D24   D(23,4,5,16)           -0.7976         estimate D2E/DX2                !
 ! D25   D(4,5,6,7)             -0.304          estimate D2E/DX2                !
 ! D26   D(4,5,6,24)           179.4667         estimate D2E/DX2                !
 ! D27   D(16,5,6,7)           179.9149         estimate D2E/DX2                !
 ! D28   D(16,5,6,24)           -0.3144         estimate D2E/DX2                !
 ! D29   D(5,6,7,8)              1.3296         estimate D2E/DX2                !
 ! D30   D(5,6,7,25)          -179.135          estimate D2E/DX2                !
 ! D31   D(24,6,7,8)          -178.4415         estimate D2E/DX2                !
 ! D32   D(24,6,7,25)            1.0939         estimate D2E/DX2                !
 ! D33   D(6,7,8,2)            178.2517         estimate D2E/DX2                !
 ! D34   D(6,7,8,3)             -1.1836         estimate D2E/DX2                !
 ! D35   D(25,7,8,2)            -1.282          estimate D2E/DX2                !
 ! D36   D(25,7,8,3)           179.2827         estimate D2E/DX2                !
 ! D37   D(14,9,10,2)          176.4845         estimate D2E/DX2                !
 ! D38   D(14,9,10,11)          -3.1327         estimate D2E/DX2                !
 ! D39   D(26,9,10,2)           -3.8593         estimate D2E/DX2                !
 ! D40   D(26,9,10,11)         176.5234         estimate D2E/DX2                !
 ! D41   D(10,9,14,13)          -0.435          estimate D2E/DX2                !
 ! D42   D(10,9,14,29)         179.7875         estimate D2E/DX2                !
 ! D43   D(26,9,14,13)         179.9174         estimate D2E/DX2                !
 ! D44   D(26,9,14,29)           0.1399         estimate D2E/DX2                !
 ! D45   D(2,10,11,12)        -176.7564         estimate D2E/DX2                !
 ! D46   D(2,10,11,27)           2.6376         estimate D2E/DX2                !
 ! D47   D(9,10,11,12)           2.8599         estimate D2E/DX2                !
 ! D48   D(9,10,11,27)        -177.7461         estimate D2E/DX2                !
 ! D49   D(10,11,12,13)          1.0199         estimate D2E/DX2                !
 ! D50   D(10,11,12,28)       -178.9873         estimate D2E/DX2                !
 ! D51   D(27,11,12,13)       -178.3752         estimate D2E/DX2                !
 ! D52   D(27,11,12,28)          1.6176         estimate D2E/DX2                !
 ! D53   D(11,12,13,14)         -4.5523         estimate D2E/DX2                !
 ! D54   D(11,12,13,20)        175.0337         estimate D2E/DX2                !
 ! D55   D(28,12,13,14)        175.455          estimate D2E/DX2                !
 ! D56   D(28,12,13,20)         -4.9591         estimate D2E/DX2                !
 ! D57   D(12,13,14,9)           4.2929         estimate D2E/DX2                !
 ! D58   D(12,13,14,29)       -175.9312         estimate D2E/DX2                !
 ! D59   D(20,13,14,9)        -175.298          estimate D2E/DX2                !
 ! D60   D(20,13,14,29)          4.4778         estimate D2E/DX2                !
 ! D61   D(1,15,17,19)         -76.8809         estimate D2E/DX2                !
 ! D62   D(1,15,17,33)         163.7155         estimate D2E/DX2                !
 ! D63   D(1,15,17,34)          42.5228         estimate D2E/DX2                !
 ! D64   D(18,15,17,19)        106.5158         estimate D2E/DX2                !
 ! D65   D(18,15,17,33)        -12.8878         estimate D2E/DX2                !
 ! D66   D(18,15,17,34)       -134.0806         estimate D2E/DX2                !
 ! D67   D(15,17,19,21)         65.7508         estimate D2E/DX2                !
 ! D68   D(15,17,19,30)       -174.2894         estimate D2E/DX2                !
 ! D69   D(15,17,19,31)        -54.6521         estimate D2E/DX2                !
 ! D70   D(33,17,19,21)       -174.8456         estimate D2E/DX2                !
 ! D71   D(33,17,19,30)        -54.8858         estimate D2E/DX2                !
 ! D72   D(33,17,19,31)         64.7515         estimate D2E/DX2                !
 ! D73   D(34,17,19,21)        -53.6528         estimate D2E/DX2                !
 ! D74   D(34,17,19,30)         66.307          estimate D2E/DX2                !
 ! D75   D(34,17,19,31)       -174.0557         estimate D2E/DX2                !
 ! D76   D(15,17,34,35)        100.8008         estimate D2E/DX2                !
 ! D77   D(15,17,34,36)       -139.1992         estimate D2E/DX2                !
 ! D78   D(19,17,34,35)       -141.5647         estimate D2E/DX2                !
 ! D79   D(19,17,34,36)        -21.5647         estimate D2E/DX2                !
 ! D80   D(33,17,34,35)        -20.382          estimate D2E/DX2                !
 ! D81   D(33,17,34,36)         99.618          estimate D2E/DX2                !
 ! D82   D(17,19,21,32)       -178.4146         estimate D2E/DX2                !
 ! D83   D(30,19,21,32)         60.977          estimate D2E/DX2                !
 ! D84   D(31,19,21,32)        -58.103          estimate D2E/DX2                !
 --------------------------------------------------------------------------------
 Trust Radius=3.00D-01 FncErr=1.00D-07 GrdErr=1.00D-06 EigMax=2.50D+02 EigMin=1.00D-04
 Number of steps in this run=    190 maximum allowed number of steps=    216.
 GradGradGradGradGradGradGradGradGradGradGradGradGradGradGradGradGradGrad

                          Input orientation:                          
 ---------------------------------------------------------------------
 Center     Atomic      Atomic             Coordinates (Angstroms)
 Number     Number       Type             X           Y           Z
 ---------------------------------------------------------------------
      1          8           0       -0.243170    0.935854   -0.345700
      2          5           0       -0.781419   -0.372029    0.282685
      3          6           0        0.885376   -2.285151    0.910872
      4          6           0        1.552083   -3.497952    0.683614
      5          6           0        1.308185   -4.213595   -0.486946
      6          6           0        0.385292   -3.729271   -1.423853
      7          6           0       -0.299044   -2.527025   -1.182188
      8          6           0       -0.034864   -1.806273   -0.020958
      9          6           0       -1.929865   -0.114985    2.648203
     10          6           0       -2.105411   -0.318753    1.280835
     11          6           0       -3.395493   -0.471039    0.742637
     12          6           0       -4.521129   -0.356524    1.584701
     13          6           0       -4.351597   -0.073183    2.935781
     14          6           0       -3.060904    0.003122    3.475554
     15          6           0       -0.957091    1.486850   -1.275253
     16         35           0        2.261276   -5.844440   -0.769865
     17          6           0       -0.516588    2.696310   -2.111645
     18          8           0       -2.094224    1.002078   -1.618846
     19          6           0       -0.680156    3.958651   -1.212120
     20         35           0       -5.863856    0.226087    4.066899
     21          8           0        0.238946    3.874775   -0.127170
     22          1           0        1.074542   -1.725887    1.788169
     23          1           0        2.245904   -3.878289    1.390769
     24          1           0        0.202032   -4.277443   -2.333701
     25          1           0       -1.012034   -2.166702   -1.890837
     26          1           0       -0.938964   -0.057797    3.043482
     27          1           0       -3.524765   -0.663412   -0.303199
     28          1           0       -5.511308   -0.487572    1.185241
     29          1           0       -2.928438    0.155582    4.522054
     30          1           0       -0.481059    4.845002   -1.775886
     31          1           0       -1.662773    4.008835   -0.845615
     32          1           0        0.132069    4.651017    0.464798
     33          1           0       -1.135446    2.784341   -2.980072
     34          7           0        0.889888    2.544147   -2.511109
     35          1           0        0.934921    2.227595   -3.458614
     36          1           0        1.356206    3.425174   -2.431486
 ---------------------------------------------------------------------
                    Distance matrix (angstroms):
                    1          2          3          4          5
     1  O    0.000000
     2  B    1.547623   0.000000
     3  C    3.636958   2.613974   0.000000
     4  C    4.892961   3.921400   1.402509   0.000000
     5  C    5.379914   4.440316   2.419000   1.393500   0.000000
     6  C    4.829158   3.942659   2.790432   2.419985   1.401462
     7  C    3.562915   2.650009   2.417076   2.801891   2.431269
     8  C    2.769136   1.645175   1.394444   2.424170   2.795733
     9  C    3.593419   2.642097   3.956454   5.237179   6.092022
    10  C    2.772651   1.658944   3.598388   4.882749   5.472429
    11  C    3.619526   2.656076   4.652435   5.800362   6.135405
    12  C    4.868021   3.959914   5.779615   6.896697   7.290379
    13  C    5.354013   4.458071   6.034812   7.187123   7.803282
    14  C    4.838553   3.940965   5.233251   6.429005   7.250590
    15  C    1.295124   2.431761   4.733055   5.914505   6.184494
    16  Br   7.240480   6.349263   4.169715   2.849836   1.909995
    17  C    2.508490   3.900981   5.993001   7.103644   7.329135
    18  O    2.247595   2.688390   5.107187   6.232748   6.329362
    19  C    3.174734   4.582519   6.778130   8.011094   8.441859
    20  Br   7.181010   6.364682   7.862503   8.961654   9.585742
    21  O    2.986209   4.386852   6.280134   7.532517   8.166666
    22  H    3.657134   2.746636   1.057454   2.142032   3.379264
    23  H    5.690940   4.763024   2.149285   1.061184   2.125455
    24  H    5.597215   4.802594   3.868261   3.396238   2.153638
    25  H    3.550275   2.828114   3.385819   3.869719   3.397660
    26  H    3.599726   2.783085   3.582924   4.858905   5.897818
    27  H    3.650798   2.820303   4.853180   5.897695   5.999581
    28  H    5.667733   4.816618   6.650123   7.694512   7.948896
    29  H    5.613779   4.781246   5.791631   6.939524   7.882180
    30  H    4.169348   5.616524   7.741117   8.932396   9.323140
    31  H    3.421754   4.608884   7.013741   8.308171   8.750062
    32  H    3.821014   5.108680   6.991200   8.274661   8.992798
    33  H    3.339607   4.553415   6.702456   7.753233   7.820366
    34  N    2.925649   4.370656   5.918791   6.866711   7.066773
    35  H    3.570256   4.868387   6.281699   7.093718   7.103455
    36  H    3.620113   5.133704   6.633313   7.594201   7.882533
                    6          7          8          9         10
     6  C    0.000000
     7  C    1.404320   0.000000
     8  C    2.417140   1.392023   0.000000
     9  C    5.916474   4.811384   3.684551   0.000000
    10  C    5.015034   3.769072   2.862612   1.393569   0.000000
    11  C    5.440964   4.185693   3.695911   2.430231   1.406115
    12  C    6.670816   5.494793   4.980612   2.811410   2.435048
    13  C    7.403480   6.277117   5.511815   2.439105   2.800805
    14  C    7.057707   5.976962   4.965524   1.406310   2.415236
    15  C    5.388134   4.068522   3.642584   4.348065   3.333530
    16  Br   2.901888   4.210759   4.705307   7.878802   7.335294
    17  C    6.524916   5.309843   4.987613   5.705864   4.808730
    18  O    5.345249   3.983454   3.831585   4.413904   3.186356
    19  C    7.764287   6.496932   5.921961   5.749641   5.151928
    20  Br   9.211138   8.130171   7.403933   4.195868   4.710087
    21  O    7.715200   6.510417   5.688634   5.322088   5.006412
    22  H    3.847818   3.369211   2.123720   3.515840   3.514188
    23  H    3.377304   3.863002   3.389414   5.760265   5.622839
    24  H    1.077915   2.154303   3.392871   6.833038   5.836127
    25  H    2.147607   1.067881   2.140377   5.065061   3.830129
    26  H    5.932155   4.935876   3.642164   1.068364   2.129700
    27  H    5.093516   3.827656   3.683097   3.399302   2.154651
    28  H    7.217055   6.077152   5.760671   3.886620   3.411418
    29  H    7.837519   6.829968   5.732417   2.140483   3.377554
    30  H    8.625117   7.398134   6.893354   6.802432   6.216626
    31  H    8.025411   6.685095   6.094722   5.411469   4.842080
    32  H    8.594204   7.377174   6.477686   5.633258   5.510975
    33  H    6.867430   5.669441   5.571479   6.380805   5.359604
    34  N    6.386902   5.375535   5.097271   6.452945   5.616658
    35  H    6.318749   5.413981   5.387955   7.140582   6.179797
    36  H    7.289998   6.303115   5.925686   7.009582   6.307227
                   11         12         13         14         15
    11  C    0.000000
    12  C    1.410405   0.000000
    13  C    2.425347   1.390842   0.000000
    14  C    2.793854   2.415974   1.401095   0.000000
    15  C    3.721695   4.927447   5.629315   5.403485   0.000000
    16  Br   7.947336   9.036715   9.527293   8.974585   8.022538
    17  C    5.144620   6.246529   6.917651   6.703998   1.535053
    18  O    3.072454   4.242450   5.195820   5.280653   1.283017
    19  C    5.551241   6.418412   6.851296   6.579396   2.488067
    20  Br   4.198752   2.881607   1.912045   2.873316   7.362367
    21  O    5.731649   6.594900   6.785361   6.233644   2.907023
    22  H    4.759097   5.764382   5.787178   4.789432   4.881984
    23  H    6.622295   7.631067   7.771288   6.897383   6.793494
    24  H    6.074105   7.282563   8.135034   7.919434   5.974190
    25  H    3.935903   5.260214   6.231512   6.140371   3.705456
    26  H    3.391046   3.879328   3.414367   2.166339   4.586691
    27  H    1.071210   2.156638   3.394557   3.865024   3.487329
    28  H    2.161676   1.075730   2.140336   3.389808   5.540150
    29  H    3.859377   3.380379   2.143357   1.065811   6.266358
    30  H    6.564844   7.394024   7.833864   7.594539   3.428473
    31  H    5.059064   5.756127   6.179935   6.055824   2.653863
    32  H    6.225459   6.926897   6.966138   6.392390   3.771737
    33  H    5.437267   6.493461   7.314807   7.288187   2.149815
    34  N    6.167876   7.380289   7.999512   7.609579   2.461006
    35  H    6.609510   7.866460   8.609829   8.306479   2.982529
    36  H    6.916225   8.060650   8.580506   8.131078   3.231922
                   16         17         18         19         20
    16  Br   0.000000
    17  C    9.080821   0.000000
    18  O    8.158796   2.366899   0.000000
    19  C   10.244423   1.558655   3.302474   0.000000
    20  Br  11.236697   8.536374   6.865856   8.286786   0.000000
    21  O    9.948166   2.428529   3.990134   1.424395   8.255139
    22  H    4.991428   6.107051   5.393572   6.662933   7.559377
    23  H    2.921357   7.945037   7.191139   8.760964   9.475009
    24  H    3.023499   7.014196   5.801478   8.358794   9.901740
    25  H    5.049445   4.893169   3.359506   6.171770   8.047374
    26  H    7.633374   5.859935   4.918868   5.857387   5.038108
    27  H    7.780688   4.858738   2.559537   5.502854   5.035902
    28  H    9.640101   6.778922   4.664592   6.989726   2.989574
    29  H    9.536131   7.501885   6.254847   7.238705   2.971333
    30  H   11.081365   2.175058   4.170735   1.069154   9.189506
    31  H   10.606174   2.153902   3.134426   1.049943   7.489397
    32  H   10.780192   3.298438   4.755282   1.987746   8.276850
    33  H    9.533027   1.070000   2.438987   2.170701   8.863539
    34  N    8.676464   1.470000   3.475491   2.480571   9.708586
    35  H    8.610827   2.034920   3.749982   3.263704  10.337444
    36  H    9.460754   2.034920   4.293862   2.432740  10.227046
                   21         22         23         24         25
    21  O    0.000000
    22  H    5.977805   0.000000
    23  H    8.151197   2.482509   0.000000
    24  H    8.445637   4.925599   4.267132   0.000000
    25  H    6.416768   4.252435   4.930784   2.474937   0.000000
    26  H    5.187063   2.900438   5.241279   6.929746   5.366593
    27  H    5.898444   5.162974   6.819501   5.574331   3.330809
    28  H    7.336069   6.728326   8.468385   7.706382   5.703087
    29  H    6.743885   5.199798   7.269861   8.743736   7.084544
    30  H    2.044019   7.635376   9.672634   9.164975   7.032720
    31  H    2.037320   6.878717   9.082175   8.622894   6.297079
    32  H    0.982039   6.580613   8.835994   9.357023   7.303374
    33  H    3.349186   6.925484   8.656120   7.216331   5.070946
    34  N    2.806682   6.062267   7.636172   6.858477   5.118022
    35  H    3.781019   6.571016   7.906770   6.642144   5.055532
    36  H    2.600056   6.664702   8.291066   7.789222   6.096715
                   26         27         28         29         30
    26  H    0.000000
    27  H    4.272401   0.000000
    28  H    4.954200   2.488519   0.000000
    29  H    2.487913   4.930459   4.268394   0.000000
    30  H    6.890096   6.463403   7.906202   8.224620   0.000000
    31  H    5.673312   5.058767   6.257258   6.727654   1.720764
    32  H    5.474454   6.496569   7.666279   6.785054   2.331142
    33  H    6.663299   4.976093   6.870475   8.149054   2.474795
    34  N    6.400648   5.886634   7.989345   8.351660   2.777406
    35  H    7.142249   6.180887   8.395916   9.105484   3.418683
    36  H    6.882890   6.713421   8.692126   8.797734   2.412730
                   31         32         33         34         35
    31  H    0.000000
    32  H    2.313231   0.000000
    33  H    2.516618   4.118034   0.000000
    34  N    3.381606   3.724139   2.092749   0.000000
    35  H    4.092505   4.680888   2.196677   1.000000   0.000000
    36  H    3.459752   3.374858   2.630578   1.000000   1.632993
                   36
    36  H    0.000000
 Stoichiometry    C15H14BBr2NO3
 Framework group  C1[X(C15H14BBr2NO3)]
 Deg. of freedom   102
 Full point group                 C1      NOp   1
 Largest Abelian subgroup         C1      NOp   1
 Largest concise Abelian subgroup C1      NOp   1
                         Standard orientation:                         
 ---------------------------------------------------------------------
 Center     Atomic      Atomic             Coordinates (Angstroms)
 Number     Number       Type             X           Y           Z
 ---------------------------------------------------------------------
      1          8           0       -0.071651    2.249528    0.412140
      2          5           0        0.093104    0.723836    0.211502
      3          6           0        2.154802   -0.501022    1.251688
      4          6           0        3.437072   -1.067276    1.205069
      5          6           0        4.158889   -1.049996    0.013213
      6          6           0        3.595094   -0.483978   -1.138245
      7          6           0        2.301241    0.060234   -1.094757
      8          6           0        1.594126    0.058974    0.104291
      9          6           0       -1.791558   -0.780722    1.290868
     10          6           0       -1.252501   -0.242484    0.123927
     11          6           0       -1.845803   -0.506549   -1.123239
     12          6           0       -3.028859   -1.271897   -1.185392
     13          6           0       -3.613530   -1.742775   -0.014547
     14          6           0       -2.974735   -1.537095    1.215373
     15          6           0       -0.533158    2.934229   -0.585629
     16         35           0        5.913548   -1.804414    0.002883
     17          6           0       -0.624755    4.466066   -0.623985
     18          8           0       -0.896854    2.363047   -1.675404
     19          6           0       -1.851822    4.872992    0.246716
     20         35           0       -5.290308   -2.660413   -0.062212
     21          8           0       -1.589766    4.528329    1.603711
     22          1           0        1.604475   -0.494366    2.154631
     23          1           0        3.869583   -1.506673    2.068768
     24          1           0        4.155677   -0.462230   -2.058665
     25          1           0        1.868026    0.478636   -1.976593
     26          1           0       -1.292769   -0.613338    2.220702
     27          1           0       -1.408071   -0.120900   -2.021658
     28          1           0       -3.481087   -1.492846   -2.136111
     29          1           0       -3.386507   -1.952334    2.106425
     30          1           0       -2.024334    5.925816    0.176758
     31          1           0       -2.709462    4.370197   -0.090971
     32          1           0       -2.363988    4.754985    2.163718
     33          1           0       -0.765866    4.798115   -1.631324
     34          7           0        0.601849    5.055745   -0.068449
     35          1           0        1.196697    5.352973   -0.815317
     36          1           0        0.364897    5.842098    0.502081
 ---------------------------------------------------------------------
 Rotational constants (GHZ):           0.1757752           0.0769606           0.0568877
 Standard basis: 6-311++G(d,p) (5D, 7F)
 There are   660 symmetry adapted cartesian basis functions of A   symmetry.
 There are   634 symmetry adapted basis functions of A   symmetry.
   634 basis functions,  1034 primitive gaussians,   660 cartesian basis functions
   105 alpha electrons      105 beta electrons
       nuclear repulsion energy      2366.0311355907 Hartrees.
 NAtoms=   36 NActive=   36 NUniq=   36 SFac= 1.00D+00 NAtFMM=   60 NAOKFM=F Big=F
 Integral buffers will be    131072 words long.
 Raffenetti 2 integral format.
 Two-electron integral symmetry is turned on.
 One-electron integrals computed using PRISM.
 NBasis=   634 RedAO= T EigKep=  1.75D-06  NBF=   634
 NBsUse=   631 1.00D-06 EigRej=  9.69D-07 NBFU=   631
 ExpMin= 3.15D-02 ExpMax= 4.40D+05 ExpMxC= 1.51D+04 IAcc=3 IRadAn=         5 AccDes= 0.00D+00
 Harris functional with IExCor= 1009 and IRadAn=       5 diagonalized for initial guess.
 HarFok:  IExCor= 1009 AccDes= 0.00D+00 IRadAn=         5 IDoV= 1 UseB2=F ITyADJ=14
 ICtDFT=  3500011 ScaDFX=  1.000000  1.000000  1.000000  1.000000
 FoFCou: FMM=F IPFlag=           0 FMFlag=      100000 FMFlg1=           0
         NFxFlg=           0 DoJE=T BraDBF=F KetDBF=T FulRan=T
         wScrn=  0.000000 ICntrl=       500 IOpCl=  0 I1Cent=   200000004 NGrid=           0
         NMat0=    1 NMatS0=      1 NMatT0=    0 NMatD0=    1 NMtDS0=    0 NMtDT0=    0
 Petite list used in FoFCou.
 Requested convergence on RMS density matrix=1.00D-08 within 128 cycles.
 Requested convergence on MAX density matrix=1.00D-06.
 Requested convergence on             energy=1.00D-06.
 No special actions if energy rises.
 SCF Done:  E(RM062X) =  -6033.52439445     A.U. after   16 cycles
            NFock= 16  Conv=0.68D-08     -V/T= 2.0017

 **********************************************************************

            Population analysis using the SCF density.

 **********************************************************************

 Orbital symmetries:
       Occupied  (A) (A) (A) (A) (A) (A) (A) (A) (A) (A) (A) (A)
                 (A) (A) (A) (A) (A) (A) (A) (A) (A) (A) (A) (A)
                 (A) (A) (A) (A) (A) (A) (A) (A) (A) (A) (A) (A)
                 (A) (A) (A) (A) (A) (A) (A) (A) (A) (A) (A) (A)
                 (A) (A) (A) (A) (A) (A) (A) (A) (A) (A) (A) (A)
                 (A) (A) (A) (A) (A) (A) (A) (A) (A) (A) (A) (A)
                 (A) (A) (A) (A) (A) (A) (A) (A) (A) (A) (A) (A)
                 (A) (A) (A) (A) (A) (A) (A) (A) (A) (A) (A) (A)
                 (A) (A) (A) (A) (A) (A) (A) (A) (A)
       Virtual   (A) (A) (A) (A) (A) (A) (A) (A) (A) (A) (A) (A)
                 (A) (A) (A) (A) (A) (A) (A) (A) (A) (A) (A) (A)
                 (A) (A) (A) (A) (A) (A) (A) (A) (A) (A) (A) (A)
                 (A) (A) (A) (A) (A) (A) (A) (A) (A) (A) (A) (A)
                 (A) (A) (A) (A) (A) (A) (A) (A) (A) (A) (A) (A)
                 (A) (A) (A) (A) (A) (A) (A) (A) (A) (A) (A) (A)
                 (A) (A) (A) (A) (A) (A) (A) (A) (A) (A) (A) (A)
                 (A) (A) (A) (A) (A) (A) (A) (A) (A) (A) (A) (A)
                 (A) (A) (A) (A) (A) (A) (A) (A) (A) (A) (A) (A)
                 (A) (A) (A) (A) (A) (A) (A) (A) (A) (A) (A) (A)
                 (A) (A) (A) (A) (A) (A) (A) (A) (A) (A) (A) (A)
                 (A) (A) (A) (A) (A) (A) (A) (A) (A) (A) (A) (A)
                 (A) (A) (A) (A) (A) (A) (A) (A) (A) (A) (A) (A)
                 (A) (A) (A) (A) (A) (A) (A) (A) (A) (A) (A) (A)
                 (A) (A) (A) (A) (A) (A) (A) (A) (A) (A) (A) (A)
                 (A) (A) (A) (A) (A) (A) (A) (A) (A) (A) (A) (A)
                 (A) (A) (A) (A) (A) (A) (A) (A) (A) (A) (A) (A)
                 (A) (A) (A) (A) (A) (A) (A) (A) (A) (A) (A) (A)
                 (A) (A) (A) (A) (A) (A) (A) (A) (A) (A) (A) (A)
                 (A) (A) (A) (A) (A) (A) (A) (A) (A) (A) (A) (A)
                 (A) (A) (A) (A) (A) (A) (A) (A) (A) (A) (A) (A)
                 (A) (A) (A) (A) (A) (A) (A) (A) (A) (A) (A) (A)
                 (A) (A) (A) (A) (A) (A) (A) (A) (A) (A) (A) (A)
                 (A) (A) (A) (A) (A) (A) (A) (A) (A) (A) (A) (A)
                 (A) (A) (A) (A) (A) (A) (A) (A) (A) (A) (A) (A)
                 (A) (A) (A) (A) (A) (A) (A) (A) (A) (A) (A) (A)
                 (A) (A) (A) (A) (A) (A) (A) (A) (A) (A) (A) (A)
                 (A) (A) (A) (A) (A) (A) (A) (A) (A) (A) (A) (A)
                 (A) (A) (A) (A) (A) (A) (A) (A) (A) (A) (A) (A)
                 (A) (A) (A) (A) (A) (A) (A) (A) (A) (A) (A) (A)
                 (A) (A) (A) (A) (A) (A) (A) (A) (A) (A) (A) (A)
                 (A) (A) (A) (A) (A) (A) (A) (A) (A) (A) (A) (A)
                 (A) (A) (A) (A) (A) (A) (A) (A) (A) (A) (A) (A)
                 (A) (A) (A) (A) (A) (A) (A) (A) (A) (A) (A) (A)
                 (A) (A) (A) (A) (A) (A) (A) (A) (A) (A) (A) (A)
                 (A) (A) (A) (A) (A) (A) (A) (A) (A) (A) (A) (A)
                 (A) (A) (A) (A) (A) (A) (A) (A) (A) (A) (A) (A)
                 (A) (A) (A) (A) (A) (A) (A) (A) (A) (A) (A) (A)
                 (A) (A) (A) (A) (A) (A) (A) (A) (A) (A) (A) (A)
                 (A) (A) (A) (A) (A) (A) (A) (A) (A) (A) (A) (A)
                 (A) (A) (A) (A) (A) (A) (A) (A) (A) (A) (A) (A)
                 (A) (A) (A) (A) (A) (A) (A) (A) (A) (A) (A) (A)
                 (A) (A) (A) (A) (A) (A) (A) (A) (A) (A) (A) (A)
                 (A) (A) (A) (A) (A) (A) (A) (A) (A) (A)
 The electronic state is 1-A.
 Alpha  occ. eigenvalues -- -485.34086-485.33735 -63.33264 -63.32913 -57.16016
 Alpha  occ. eigenvalues --  -57.15753 -57.15748 -57.15664 -57.15402 -57.15397
 Alpha  occ. eigenvalues --  -19.67991 -19.63863 -19.60798 -14.73681 -10.68860
 Alpha  occ. eigenvalues --  -10.61562 -10.61057 -10.60414 -10.59956 -10.56941
 Alpha  occ. eigenvalues --  -10.56721 -10.56701 -10.56631 -10.56393 -10.56287
 Alpha  occ. eigenvalues --  -10.56197 -10.56071 -10.56011 -10.55596  -9.01971
 Alpha  occ. eigenvalues --   -9.01619  -7.15292  -6.84778  -6.84423  -6.83726
 Alpha  occ. eigenvalues --   -6.83718  -6.83376  -6.83369  -2.87932  -2.87577
 Alpha  occ. eigenvalues --   -2.87566  -2.87554  -2.87213  -2.87202  -2.86622
 Alpha  occ. eigenvalues --   -2.86621  -2.86274  -2.86273  -1.23146  -1.15805
 Alpha  occ. eigenvalues --   -1.10781  -1.01033  -0.98902  -0.98143  -0.91013
 Alpha  occ. eigenvalues --   -0.90253  -0.86607  -0.85789  -0.85148  -0.82960
 Alpha  occ. eigenvalues --   -0.81868  -0.76094  -0.71929  -0.71069  -0.70539
 Alpha  occ. eigenvalues --   -0.68316  -0.67895  -0.62541  -0.61558  -0.59481
 Alpha  occ. eigenvalues --   -0.59229  -0.57069  -0.56882  -0.55277  -0.54787
 Alpha  occ. eigenvalues --   -0.54676  -0.54110  -0.53706  -0.52566  -0.51450
 Alpha  occ. eigenvalues --   -0.51226  -0.50409  -0.49583  -0.47498  -0.46832
 Alpha  occ. eigenvalues --   -0.46341  -0.45980  -0.44371  -0.43347  -0.42567
 Alpha  occ. eigenvalues --   -0.42206  -0.41711  -0.39708  -0.38408  -0.37786
 Alpha  occ. eigenvalues --   -0.37186  -0.35967  -0.35515  -0.35282  -0.35096
 Alpha  occ. eigenvalues --   -0.32734  -0.32265  -0.31880  -0.30738  -0.29505
 Alpha virt. eigenvalues --   -0.03441  -0.01610  -0.01176  -0.00731  -0.00368
 Alpha virt. eigenvalues --   -0.00145   0.00485   0.00679   0.00837   0.01195
 Alpha virt. eigenvalues --    0.01517   0.01550   0.01808   0.02152   0.02363
 Alpha virt. eigenvalues --    0.02804   0.03519   0.03684   0.03987   0.04280
 Alpha virt. eigenvalues --    0.04643   0.04926   0.05372   0.05796   0.06018
 Alpha virt. eigenvalues --    0.06242   0.06616   0.06884   0.07169   0.08033
 Alpha virt. eigenvalues --    0.08360   0.08465   0.08724   0.09200   0.09451
 Alpha virt. eigenvalues --    0.09920   0.10314   0.10646   0.11189   0.11487
 Alpha virt. eigenvalues --    0.11774   0.11900   0.12229   0.12523   0.13024
 Alpha virt. eigenvalues --    0.13136   0.13252   0.13615   0.14111   0.14298
 Alpha virt. eigenvalues --    0.14339   0.14560   0.14951   0.15017   0.15379
 Alpha virt. eigenvalues --    0.15788   0.15975   0.16169   0.16429   0.16737
 Alpha virt. eigenvalues --    0.16933   0.17000   0.17495   0.17576   0.17876
 Alpha virt. eigenvalues --    0.18047   0.18231   0.18451   0.19054   0.19652
 Alpha virt. eigenvalues --    0.19789   0.20121   0.20471   0.20672   0.21068
 Alpha virt. eigenvalues --    0.21474   0.21936   0.22105   0.22379   0.22764
 Alpha virt. eigenvalues --    0.22890   0.23103   0.23288   0.23621   0.24202
 Alpha virt. eigenvalues --    0.24275   0.24701   0.24980   0.25348   0.25526
 Alpha virt. eigenvalues --    0.25857   0.26574   0.26688   0.27044   0.27184
 Alpha virt. eigenvalues --    0.27525   0.28472   0.28581   0.28884   0.29078
 Alpha virt. eigenvalues --    0.29613   0.29831   0.29915   0.30468   0.30792
 Alpha virt. eigenvalues --    0.30945   0.31213   0.31271   0.31555   0.31801
 Alpha virt. eigenvalues --    0.32028   0.32666   0.33041   0.33932   0.34188
 Alpha virt. eigenvalues --    0.34507   0.35308   0.35496   0.36199   0.36827
 Alpha virt. eigenvalues --    0.37156   0.37422   0.37646   0.37928   0.38469
 Alpha virt. eigenvalues --    0.39351   0.39726   0.39966   0.40414   0.40683
 Alpha virt. eigenvalues --    0.41795   0.42666   0.43213   0.43451   0.44467
 Alpha virt. eigenvalues --    0.45430   0.46110   0.46409   0.46523   0.47283
 Alpha virt. eigenvalues --    0.47907   0.49504   0.50774   0.50854   0.50890
 Alpha virt. eigenvalues --    0.51623   0.52719   0.53471   0.53641   0.54202
 Alpha virt. eigenvalues --    0.54750   0.55910   0.56975   0.57294   0.58361
 Alpha virt. eigenvalues --    0.58680   0.59183   0.59517   0.59900   0.60333
 Alpha virt. eigenvalues --    0.60688   0.61240   0.61749   0.61935   0.62044
 Alpha virt. eigenvalues --    0.62508   0.63152   0.63549   0.64872   0.65150
 Alpha virt. eigenvalues --    0.65436   0.66298   0.66807   0.67249   0.67437
 Alpha virt. eigenvalues --    0.68088   0.69063   0.69405   0.69717   0.70186
 Alpha virt. eigenvalues --    0.70505   0.71385   0.71641   0.71837   0.72610
 Alpha virt. eigenvalues --    0.72954   0.73465   0.73982   0.75187   0.75463
 Alpha virt. eigenvalues --    0.75889   0.76726   0.77004   0.77653   0.78038
 Alpha virt. eigenvalues --    0.78356   0.78598   0.79175   0.79508   0.79977
 Alpha virt. eigenvalues --    0.80219   0.80309   0.80988   0.82079   0.83593
 Alpha virt. eigenvalues --    0.84303   0.84991   0.85278   0.85906   0.87073
 Alpha virt. eigenvalues --    0.87737   0.88084   0.88807   0.89545   0.90104
 Alpha virt. eigenvalues --    0.91046   0.91672   0.92384   0.92906   0.93047
 Alpha virt. eigenvalues --    0.93932   0.94162   0.94911   0.95365   0.95794
 Alpha virt. eigenvalues --    0.96236   0.96469   0.96889   0.98727   0.99912
 Alpha virt. eigenvalues --    1.00538   1.02320   1.04614   1.05815   1.06209
 Alpha virt. eigenvalues --    1.07508   1.08444   1.09808   1.10209   1.11641
 Alpha virt. eigenvalues --    1.11836   1.12014   1.12561   1.13706   1.14283
 Alpha virt. eigenvalues --    1.14662   1.16431   1.16588   1.18491   1.18730
 Alpha virt. eigenvalues --    1.19619   1.21564   1.23059   1.23512   1.25720
 Alpha virt. eigenvalues --    1.26538   1.27878   1.28536   1.29247   1.30131
 Alpha virt. eigenvalues --    1.31144   1.31947   1.33024   1.33721   1.34804
 Alpha virt. eigenvalues --    1.36609   1.37910   1.38275   1.38711   1.40287
 Alpha virt. eigenvalues --    1.41924   1.45533   1.45929   1.48778   1.50191
 Alpha virt. eigenvalues --    1.50595   1.51007   1.52711   1.53757   1.54689
 Alpha virt. eigenvalues --    1.55797   1.56599   1.56755   1.57266   1.57351
 Alpha virt. eigenvalues --    1.58953   1.60037   1.60790   1.61964   1.62843
 Alpha virt. eigenvalues --    1.63849   1.64530   1.65556   1.65759   1.66325
 Alpha virt. eigenvalues --    1.68505   1.68899   1.69983   1.70566   1.71372
 Alpha virt. eigenvalues --    1.71772   1.72772   1.73275   1.74693   1.75491
 Alpha virt. eigenvalues --    1.76705   1.76988   1.78238   1.79140   1.79932
 Alpha virt. eigenvalues --    1.80807   1.81189   1.82026   1.83200   1.84464
 Alpha virt. eigenvalues --    1.85850   1.87793   1.89178   1.92989   1.93930
 Alpha virt. eigenvalues --    1.94408   1.94625   1.94641   1.95244   1.96051
 Alpha virt. eigenvalues --    1.96417   1.96678   1.97099   1.97209   1.99510
 Alpha virt. eigenvalues --    2.00161   2.00371   2.01405   2.01844   2.02228
 Alpha virt. eigenvalues --    2.05367   2.06011   2.07018   2.07209   2.08415
 Alpha virt. eigenvalues --    2.08863   2.10075   2.10286   2.11830   2.12334
 Alpha virt. eigenvalues --    2.12939   2.13367   2.13864   2.14329   2.16379
 Alpha virt. eigenvalues --    2.17309   2.17507   2.20698   2.24975   2.26253
 Alpha virt. eigenvalues --    2.29130   2.32374   2.32994   2.33988   2.34155
 Alpha virt. eigenvalues --    2.34396   2.35897   2.36650   2.37317   2.40059
 Alpha virt. eigenvalues --    2.45554   2.45733   2.45989   2.46720   2.52583
 Alpha virt. eigenvalues --    2.53556   2.53798   2.54659   2.59296   2.61055
 Alpha virt. eigenvalues --    2.61815   2.64001   2.64563   2.65898   2.66289
 Alpha virt. eigenvalues --    2.66838   2.68443   2.70206   2.72960   2.73265
 Alpha virt. eigenvalues --    2.73560   2.74108   2.74543   2.75577   2.76602
 Alpha virt. eigenvalues --    2.77105   2.77666   2.77748   2.78165   2.78641
 Alpha virt. eigenvalues --    2.79299   2.79629   2.80649   2.81996   2.83859
 Alpha virt. eigenvalues --    2.85367   2.85837   2.87041   2.87373   2.90166
 Alpha virt. eigenvalues --    2.91338   2.93213   2.94682   2.97053   2.97692
 Alpha virt. eigenvalues --    2.98169   2.99494   2.99930   3.00735   3.01574
 Alpha virt. eigenvalues --    3.04236   3.06024   3.07317   3.08727   3.09352
 Alpha virt. eigenvalues --    3.11964   3.14692   3.15944   3.16827   3.18912
 Alpha virt. eigenvalues --    3.21255   3.21595   3.22169   3.23994   3.26357
 Alpha virt. eigenvalues --    3.29298   3.30962   3.35522   3.37930   3.37931
 Alpha virt. eigenvalues --    3.39142   3.41140   3.43399   3.48716   3.51830
 Alpha virt. eigenvalues --    3.53206   3.53510   3.55107   3.61603   3.66676
 Alpha virt. eigenvalues --    3.68278   3.69698   3.72842   3.77389   3.78110
 Alpha virt. eigenvalues --    3.90907   3.91544   3.93440   3.96863   4.05262
 Alpha virt. eigenvalues --    4.05908   4.07482   4.15388   4.18092   4.18634
 Alpha virt. eigenvalues --    4.18894   4.20314   4.21121   4.23761   4.28561
 Alpha virt. eigenvalues --    4.29088   4.33384   4.33655   4.36237   4.37191
 Alpha virt. eigenvalues --    4.37961   4.52211   4.52587   4.71348   4.71671
 Alpha virt. eigenvalues --    4.84063   4.84636   4.89830   4.90359   5.20188
 Alpha virt. eigenvalues --    5.24683   5.27452   5.38625   5.41803   5.51924
 Alpha virt. eigenvalues --    5.68446   5.73281   5.96976   6.91189   6.91875
 Alpha virt. eigenvalues --    7.64344   7.65134   7.75347   7.76600   7.81545
 Alpha virt. eigenvalues --    7.82379  14.57112  23.64817  23.65590  23.86268
 Alpha virt. eigenvalues --   23.91063  23.95771  23.98650  23.99064  24.04895
 Alpha virt. eigenvalues --   24.05663  24.11232  24.12171  24.14055  24.14638
 Alpha virt. eigenvalues --   24.21959  24.23216  35.71727  48.42800  48.43437
 Alpha virt. eigenvalues --   50.03024  50.03883  50.09719 290.78829 290.79676
 Alpha virt. eigenvalues --  290.90705 290.92088 290.99903 291.007601021.00095
 Alpha virt. eigenvalues -- 1021.00878
          Condensed to atoms (all electrons):
               1          2          3          4          5          6
     1  O    8.388043   0.081797   0.172259   0.047893  -0.012595  -0.011478
     2  B    0.081797   5.878947   0.375597   0.059057   0.169541  -0.033113
     3  C    0.172259   0.375597  10.261381   0.571705  -1.070051   0.490122
     4  C    0.047893   0.059057   0.571705   8.506135   0.166490  -1.643388
     5  C   -0.012595   0.169541  -1.070051   0.166490   8.158662   0.184304
     6  C   -0.011478  -0.033113   0.490122  -1.643388   0.184304   9.443553
     7  C   -0.216817  -0.716186  -3.026306  -0.238682  -1.219780  -0.583959
     8  C    0.008411   0.493718  -1.927766  -1.894831  -0.160459  -2.037025
     9  C    0.143447   0.329456   1.873873   0.155589   0.046327   0.041157
    10  C    0.042178   1.072756   0.355437   0.416496  -0.019280   0.274567
    11  C   -0.197909  -0.960738  -1.879839  -0.194590   0.011920  -0.160508
    12  C    0.026471  -0.341113  -0.157973   0.002755   0.013026  -0.130022
    13  C    0.018741   0.246313   0.053858   0.005011  -0.004233   0.011853
    14  C   -0.045539  -0.179654   0.034009  -0.055970   0.003875   0.032441
    15  C    0.205272  -0.634863  -0.181706  -0.040641   0.003370  -0.061214
    16  Br  -0.000679  -0.012461   0.086171   0.151466  -0.284562   0.111973
    17  C   -0.708205  -0.280171  -0.092953   0.032563   0.002418  -0.021928
    18  O   -0.232197   0.069398  -0.054462  -0.001353   0.002521   0.003483
    19  C   -0.080937   0.032718  -0.020837  -0.004928   0.002531  -0.001958
    20  Br  -0.000192  -0.004905  -0.000314  -0.000245  -0.000167   0.000097
    21  O    0.005411   0.024409   0.006718   0.001366  -0.000140  -0.000072
    22  H   -0.002633  -0.051123   0.425896  -0.007711  -0.036991  -0.005107
    23  H    0.000642  -0.003773  -0.042859   0.359269  -0.104832   0.012722
    24  H    0.001504   0.000805   0.030015   0.023183  -0.066849   0.329953
    25  H   -0.011307  -0.176424  -0.119764  -0.022234  -0.021454  -0.090207
    26  H   -0.008389  -0.043800   0.010494   0.011920   0.005804  -0.002690
    27  H   -0.017293  -0.144075  -0.014714  -0.008347   0.002723   0.020285
    28  H   -0.000359  -0.007646   0.001393   0.000852   0.000641  -0.000968
    29  H   -0.000352  -0.008523  -0.004086   0.001715   0.000672  -0.000518
    30  H   -0.006188   0.002410   0.001157   0.000286   0.000085  -0.000372
    31  H    0.004298  -0.003884  -0.006327  -0.000843   0.000076   0.000378
    32  H   -0.007738  -0.009561   0.000621   0.000068  -0.000013   0.000157
    33  H    0.009817  -0.011609   0.002931   0.000702  -0.000428   0.002253
    34  N    0.036030   0.036313  -0.007289  -0.002170   0.000431  -0.003233
    35  H    0.005462   0.009966  -0.003334  -0.001046   0.000994  -0.001467
    36  H   -0.002971   0.003279  -0.001423   0.000115  -0.000110   0.000031
               7          8          9         10         11         12
     1  O   -0.216817   0.008411   0.143447   0.042178  -0.197909   0.026471
     2  B   -0.716186   0.493718   0.329456   1.072756  -0.960738  -0.341113
     3  C   -3.026306  -1.927766   1.873873   0.355437  -1.879839  -0.157973
     4  C   -0.238682  -1.894831   0.155589   0.416496  -0.194590   0.002755
     5  C   -1.219780  -0.160459   0.046327  -0.019280   0.011920   0.013026
     6  C   -0.583959  -2.037025   0.041157   0.274567  -0.160508  -0.130022
     7  C   10.489389   0.134617  -1.573316  -0.199375   1.923947   0.047273
     8  C    0.134617  14.111271  -0.493347  -3.509385   0.788099   0.308142
     9  C   -1.573316  -0.493347  10.936531  -1.066579  -3.301996   0.408828
    10  C   -0.199375  -3.509385  -1.066579  15.296186  -1.213939  -2.830875
    11  C    1.923947   0.788099  -3.301996  -1.213939  11.366072  -0.287367
    12  C    0.047273   0.308142   0.408828  -2.830875  -0.287367  10.029743
    13  C   -0.000883   0.116873  -1.324446  -0.222626  -1.522353   0.206779
    14  C   -0.001507   0.283511   0.072885  -1.942607   0.260889  -1.681165
    15  C    0.123688   0.351575  -0.006192  -0.235049   0.288615   0.156426
    16  Br   0.056859   0.017192  -0.002123  -0.002037   0.002068   0.000202
    17  C    0.181135  -0.393643  -0.244516  -0.110259   0.209546   0.075046
    18  O    0.051366  -0.007520  -0.079658  -0.350275   0.282328   0.075228
    19  C   -0.013702   0.029645   0.019526  -0.013493   0.005448  -0.005023
    20  Br  -0.000797   0.003792   0.061355   0.052246   0.063576   0.130806
    21  O    0.001531  -0.031392  -0.011889   0.031745  -0.000281   0.001188
    22  H   -0.003633  -0.062063   0.003297  -0.062232   0.008961  -0.011440
    23  H    0.052557   0.036603  -0.000515  -0.012297   0.002625  -0.000436
    24  H   -0.035582   0.028912   0.003632  -0.002963  -0.004907  -0.001887
    25  H    0.629265  -0.047260  -0.039963  -0.123505   0.121906   0.050942
    26  H   -0.005574  -0.022531   0.400042  -0.036678  -0.021430  -0.005679
    27  H    0.030524   0.002676  -0.036695  -0.071512   0.493702  -0.065047
    28  H    0.002335  -0.021644   0.034932   0.006212   0.003379   0.336353
    29  H    0.004239  -0.015806  -0.005783   0.027347   0.057913   0.025410
    30  H   -0.001548  -0.005973   0.000552   0.003078  -0.001171   0.000875
    31  H    0.004411   0.013023  -0.014332  -0.006048   0.005938  -0.006818
    32  H   -0.000080  -0.000903   0.003130  -0.003714   0.001183   0.000946
    33  H    0.006504  -0.018548  -0.002006  -0.008754   0.006418   0.008340
    34  N   -0.004779   0.038235  -0.000829  -0.022130   0.003516  -0.004933
    35  H   -0.003496   0.013201  -0.000288  -0.000103  -0.001477  -0.000802
    36  H    0.003243  -0.002872  -0.001811   0.001011   0.001408  -0.000277
              13         14         15         16         17         18
     1  O    0.018741  -0.045539   0.205272  -0.000679  -0.708205  -0.232197
     2  B    0.246313  -0.179654  -0.634863  -0.012461  -0.280171   0.069398
     3  C    0.053858   0.034009  -0.181706   0.086171  -0.092953  -0.054462
     4  C    0.005011  -0.055970  -0.040641   0.151466   0.032563  -0.001353
     5  C   -0.004233   0.003875   0.003370  -0.284562   0.002418   0.002521
     6  C    0.011853   0.032441  -0.061214   0.111973  -0.021928   0.003483
     7  C   -0.000883  -0.001507   0.123688   0.056859   0.181135   0.051366
     8  C    0.116873   0.283511   0.351575   0.017192  -0.393643  -0.007520
     9  C   -1.324446   0.072885  -0.006192  -0.002123  -0.244516  -0.079658
    10  C   -0.222626  -1.942607  -0.235049  -0.002037  -0.110259  -0.350275
    11  C   -1.522353   0.260889   0.288615   0.002068   0.209546   0.282328
    12  C    0.206779  -1.681165   0.156426   0.000202   0.075046   0.075228
    13  C    8.805215   0.005254  -0.052287  -0.000145  -0.001289   0.005179
    14  C    0.005254   8.913742   0.073073   0.000026  -0.004241   0.017395
    15  C   -0.052287   0.073073  11.296133   0.000747  -4.917896   0.549163
    16  Br  -0.000145   0.000026   0.000747  35.133254  -0.000017   0.000047
    17  C   -0.001289  -0.004241  -4.917896  -0.000017  14.051449  -0.109124
    18  O    0.005179   0.017395   0.549163   0.000047  -0.109124   7.967546
    19  C   -0.005752   0.005602   0.088543   0.000003  -1.543712  -0.018215
    20  Br  -0.272043   0.090592  -0.000578  -0.000005  -0.000716   0.000101
    21  O   -0.000625  -0.004807  -0.150955  -0.000003   0.191756   0.001691
    22  H    0.006784   0.032599  -0.002998   0.012503  -0.000290   0.002751
    23  H    0.000963   0.001544  -0.000316  -0.046005  -0.000292  -0.000058
    24  H    0.000711   0.000235  -0.002856  -0.036723  -0.001140  -0.000044
    25  H    0.002955   0.001138   0.056922   0.009935   0.018972   0.001723
    26  H   -0.010184  -0.018415   0.007932  -0.000563  -0.000670   0.000384
    27  H   -0.026014   0.016009   0.045984  -0.000056  -0.007944  -0.017046
    28  H   -0.098729   0.036251   0.001751   0.000012   0.003390  -0.000104
    29  H   -0.134135   0.343087   0.003093   0.000025   0.001021  -0.000177
    30  H   -0.000150  -0.000381  -0.113678  -0.000004  -0.014612   0.002023
    31  H   -0.000342   0.002882  -0.105907   0.000006   0.037910  -0.000493
    32  H    0.000249  -0.000306   0.055937   0.000001  -0.045962  -0.000396
    33  H    0.001228  -0.000934  -0.013149   0.000005   0.606083  -0.008075
    34  N   -0.000419   0.001513  -0.174000  -0.000005  -0.549009   0.017935
    35  H   -0.000054   0.000035  -0.003666  -0.000007  -0.115142   0.004315
    36  H   -0.000099   0.000192  -0.071906   0.000006   0.058054  -0.001560
              19         20         21         22         23         24
     1  O   -0.080937  -0.000192   0.005411  -0.002633   0.000642   0.001504
     2  B    0.032718  -0.004905   0.024409  -0.051123  -0.003773   0.000805
     3  C   -0.020837  -0.000314   0.006718   0.425896  -0.042859   0.030015
     4  C   -0.004928  -0.000245   0.001366  -0.007711   0.359269   0.023183
     5  C    0.002531  -0.000167  -0.000140  -0.036991  -0.104832  -0.066849
     6  C   -0.001958   0.000097  -0.000072  -0.005107   0.012722   0.329953
     7  C   -0.013702  -0.000797   0.001531  -0.003633   0.052557  -0.035582
     8  C    0.029645   0.003792  -0.031392  -0.062063   0.036603   0.028912
     9  C    0.019526   0.061355  -0.011889   0.003297  -0.000515   0.003632
    10  C   -0.013493   0.052246   0.031745  -0.062232  -0.012297  -0.002963
    11  C    0.005448   0.063576  -0.000281   0.008961   0.002625  -0.004907
    12  C   -0.005023   0.130806   0.001188  -0.011440  -0.000436  -0.001887
    13  C   -0.005752  -0.272043  -0.000625   0.006784   0.000963   0.000711
    14  C    0.005602   0.090592  -0.004807   0.032599   0.001544   0.000235
    15  C    0.088543  -0.000578  -0.150955  -0.002998  -0.000316  -0.002856
    16  Br   0.000003  -0.000005  -0.000003   0.012503  -0.046005  -0.036723
    17  C   -1.543712  -0.000716   0.191756  -0.000290  -0.000292  -0.001140
    18  O   -0.018215   0.000101   0.001691   0.002751  -0.000058  -0.000044
    19  C    6.862415  -0.000027   0.032036  -0.000509  -0.000154  -0.000140
    20  Br  -0.000027  35.135383  -0.000015  -0.000443   0.000038   0.000019
    21  O    0.032036  -0.000015   8.162835   0.000296  -0.000006   0.000008
    22  H   -0.000509  -0.000443   0.000296   0.609977  -0.034864   0.002431
    23  H   -0.000154   0.000038  -0.000006  -0.034864   0.515959   0.000414
    24  H   -0.000140   0.000019   0.000008   0.002431   0.000414   0.495035
    25  H   -0.005062  -0.000249  -0.000460  -0.008250   0.002767  -0.025581
    26  H    0.006507   0.008836  -0.001448  -0.018305   0.001287  -0.000103
    27  H    0.006281   0.008212  -0.000260   0.000219   0.000054   0.000150
    28  H    0.000274  -0.039209   0.000052  -0.000330  -0.000052  -0.000147
    29  H   -0.000275  -0.040595   0.000119   0.000465  -0.000225  -0.000039
    30  H    0.445465  -0.000007  -0.073882  -0.000134  -0.000007   0.000000
    31  H    0.373495   0.000002  -0.057567  -0.000039   0.000006  -0.000026
    32  H    0.070432   0.000003   0.149346   0.000070  -0.000002  -0.000000
    33  H   -0.182461  -0.000045   0.028538   0.000208  -0.000022   0.000011
    34  N    0.424668  -0.000002  -0.033300  -0.000468   0.000037   0.000051
    35  H    0.039785   0.000001  -0.000917  -0.000180   0.000009   0.000019
    36  H   -0.029942  -0.000001   0.005733   0.000142   0.000005   0.000001
              25         26         27         28         29         30
     1  O   -0.011307  -0.008389  -0.017293  -0.000359  -0.000352  -0.006188
     2  B   -0.176424  -0.043800  -0.144075  -0.007646  -0.008523   0.002410
     3  C   -0.119764   0.010494  -0.014714   0.001393  -0.004086   0.001157
     4  C   -0.022234   0.011920  -0.008347   0.000852   0.001715   0.000286
     5  C   -0.021454   0.005804   0.002723   0.000641   0.000672   0.000085
     6  C   -0.090207  -0.002690   0.020285  -0.000968  -0.000518  -0.000372
     7  C    0.629265  -0.005574   0.030524   0.002335   0.004239  -0.001548
     8  C   -0.047260  -0.022531   0.002676  -0.021644  -0.015806  -0.005973
     9  C   -0.039963   0.400042  -0.036695   0.034932  -0.005783   0.000552
    10  C   -0.123505  -0.036678  -0.071512   0.006212   0.027347   0.003078
    11  C    0.121906  -0.021430   0.493702   0.003379   0.057913  -0.001171
    12  C    0.050942  -0.005679  -0.065047   0.336353   0.025410   0.000875
    13  C    0.002955  -0.010184  -0.026014  -0.098729  -0.134135  -0.000150
    14  C    0.001138  -0.018415   0.016009   0.036251   0.343087  -0.000381
    15  C    0.056922   0.007932   0.045984   0.001751   0.003093  -0.113678
    16  Br   0.009935  -0.000563  -0.000056   0.000012   0.000025  -0.000004
    17  C    0.018972  -0.000670  -0.007944   0.003390   0.001021  -0.014612
    18  O    0.001723   0.000384  -0.017046  -0.000104  -0.000177   0.002023
    19  C   -0.005062   0.006507   0.006281   0.000274  -0.000275   0.445465
    20  Br  -0.000249   0.008836   0.008212  -0.039209  -0.040595  -0.000007
    21  O   -0.000460  -0.001448  -0.000260   0.000052   0.000119  -0.073882
    22  H   -0.008250  -0.018305   0.000219  -0.000330   0.000465  -0.000134
    23  H    0.002767   0.001287   0.000054  -0.000052  -0.000225  -0.000007
    24  H   -0.025581  -0.000103   0.000150  -0.000147  -0.000039   0.000000
    25  H    0.561471  -0.000377   0.001710   0.000614   0.000243  -0.000646
    26  H   -0.000377   0.574942  -0.004461   0.001887  -0.029072   0.000238
    27  H    0.001710  -0.004461   0.524821  -0.021466   0.002503   0.000078
    28  H    0.000614   0.001887  -0.021466   0.500564   0.001807   0.000057
    29  H    0.000243  -0.029072   0.002503   0.001807   0.512914  -0.000015
    30  H   -0.000646   0.000238   0.000078   0.000057  -0.000015   0.675112
    31  H    0.000774   0.000019   0.000625  -0.000196   0.000003  -0.105999
    32  H    0.000083   0.000150  -0.000040  -0.000007  -0.000013  -0.005989
    33  H    0.001892  -0.000512  -0.002163   0.000063   0.000017   0.009634
    34  N   -0.003228   0.000314   0.001494  -0.000027  -0.000018   0.002787
    35  H   -0.001899   0.000007   0.000362  -0.000010  -0.000002   0.002618
    36  H    0.000212  -0.000003  -0.000117   0.000007   0.000007  -0.009738
              31         32         33         34         35         36
     1  O    0.004298  -0.007738   0.009817   0.036030   0.005462  -0.002971
     2  B   -0.003884  -0.009561  -0.011609   0.036313   0.009966   0.003279
     3  C   -0.006327   0.000621   0.002931  -0.007289  -0.003334  -0.001423
     4  C   -0.000843   0.000068   0.000702  -0.002170  -0.001046   0.000115
     5  C    0.000076  -0.000013  -0.000428   0.000431   0.000994  -0.000110
     6  C    0.000378   0.000157   0.002253  -0.003233  -0.001467   0.000031
     7  C    0.004411  -0.000080   0.006504  -0.004779  -0.003496   0.003243
     8  C    0.013023  -0.000903  -0.018548   0.038235   0.013201  -0.002872
     9  C   -0.014332   0.003130  -0.002006  -0.000829  -0.000288  -0.001811
    10  C   -0.006048  -0.003714  -0.008754  -0.022130  -0.000103   0.001011
    11  C    0.005938   0.001183   0.006418   0.003516  -0.001477   0.001408
    12  C   -0.006818   0.000946   0.008340  -0.004933  -0.000802  -0.000277
    13  C   -0.000342   0.000249   0.001228  -0.000419  -0.000054  -0.000099
    14  C    0.002882  -0.000306  -0.000934   0.001513   0.000035   0.000192
    15  C   -0.105907   0.055937  -0.013149  -0.174000  -0.003666  -0.071906
    16  Br   0.000006   0.000001   0.000005  -0.000005  -0.000007   0.000006
    17  C    0.037910  -0.045962   0.606083  -0.549009  -0.115142   0.058054
    18  O   -0.000493  -0.000396  -0.008075   0.017935   0.004315  -0.001560
    19  C    0.373495   0.070432  -0.182461   0.424668   0.039785  -0.029942
    20  Br   0.000002   0.000003  -0.000045  -0.000002   0.000001  -0.000001
    21  O   -0.057567   0.149346   0.028538  -0.033300  -0.000917   0.005733
    22  H   -0.000039   0.000070   0.000208  -0.000468  -0.000180   0.000142
    23  H    0.000006  -0.000002  -0.000022   0.000037   0.000009   0.000005
    24  H   -0.000026  -0.000000   0.000011   0.000051   0.000019   0.000001
    25  H    0.000774   0.000083   0.001892  -0.003228  -0.001899   0.000212
    26  H    0.000019   0.000150  -0.000512   0.000314   0.000007  -0.000003
    27  H    0.000625  -0.000040  -0.002163   0.001494   0.000362  -0.000117
    28  H   -0.000196  -0.000007   0.000063  -0.000027  -0.000010   0.000007
    29  H    0.000003  -0.000013   0.000017  -0.000018  -0.000002   0.000007
    30  H   -0.105999  -0.005989   0.009634   0.002787   0.002618  -0.009738
    31  H    0.673062  -0.020100  -0.022191   0.044781  -0.000603   0.006062
    32  H   -0.020100   0.559078  -0.001522  -0.014778  -0.001212  -0.001746
    33  H   -0.022191  -0.001522   0.539649  -0.213746  -0.023446   0.017403
    34  N    0.044781  -0.014778  -0.213746   6.904573   0.419397   0.385630
    35  H   -0.000603  -0.001212  -0.023446   0.419397   0.468455  -0.057398
    36  H    0.006062  -0.001746   0.017403   0.385630  -0.057398   0.449665
 Mulliken charges:
               1
     1  O    0.366102
     2  B   -0.262857
     3  C   -0.141633
     4  C   -0.397657
     5  C    0.225534
     6  C   -0.170104
     7  C    0.103120
     8  C   -0.126528
     9  C   -0.328276
    10  C    0.486453
    11  C   -0.160954
    12  C   -0.373923
    13  C    0.188843
    14  C   -0.293254
    15  C   -0.538367
    16  Br  -0.197105
    17  C   -0.305611
    18  O   -0.173822
    19  C   -0.518247
    20  Br  -0.194504
    21  O   -0.276762
    22  H    0.203142
    23  H    0.259216
    24  H    0.261900
    25  H    0.234345
    26  H    0.200120
    27  H    0.278837
    28  H    0.258067
    29  H    0.257033
    30  H    0.194038
    31  H    0.183965
    32  H    0.272631
    33  H    0.267915
    34  N   -0.283344
    35  H    0.251922
    36  H    0.249764
 Sum of Mulliken charges =  -0.00000
 Mulliken charges with hydrogens summed into heavy atoms:
               1
     1  O    0.366102
     2  B   -0.262857
     3  C    0.061509
     4  C   -0.138441
     5  C    0.225534
     6  C    0.091797
     7  C    0.337465
     8  C   -0.126528
     9  C   -0.128156
    10  C    0.486453
    11  C    0.117883
    12  C   -0.115857
    13  C    0.188843
    14  C   -0.036221
    15  C   -0.538367
    16  Br  -0.197105
    17  C   -0.037695
    18  O   -0.173822
    19  C   -0.140244
    20  Br  -0.194504
    21  O   -0.004131
    34  N    0.218342
 Electronic spatial extent (au):  <R**2>=          16071.7121
 Charge=              0.0000 electrons
 Dipole moment (field-independent basis, Debye):
    X=             -1.0306    Y=              4.0048    Z=              0.8815  Tot=              4.2282
 Quadrupole moment (field-independent basis, Debye-Ang):
   XX=           -164.7077   YY=           -133.5347   ZZ=           -145.4982
   XY=            -11.3995   XZ=             -7.0626   YZ=             -3.4762
 Traceless Quadrupole moment (field-independent basis, Debye-Ang):
   XX=            -16.7942   YY=             14.3788   ZZ=              2.4153
   XY=            -11.3995   XZ=             -7.0626   YZ=             -3.4762
 Octapole moment (field-independent basis, Debye-Ang**2):
  XXX=            -13.5516  YYY=            126.3081  ZZZ=             16.3526  XYY=            -51.2329
  XXY=             22.4471  XXZ=              6.0486  XZZ=              3.5466  YZZ=            -40.1130
  YYZ=             -4.9796  XYZ=            -33.5281
 Hexadecapole moment (field-independent basis, Debye-Ang**3):
 XXXX=         -11119.1905 YYYY=          -4682.0736 ZZZZ=           -848.2954 XXXY=            -68.5754
 XXXZ=            -49.3280 YYYX=           -232.7535 YYYZ=            -14.9083 ZZZX=            -35.4258
 ZZZY=             53.6895 XXYY=          -2637.0172 XXZZ=          -1850.1880 YYZZ=          -1083.3183
 XXYZ=             44.0154 YYXZ=           -122.6025 ZZXY=              3.1681
 N-N= 2.366031135591D+03 E-N=-1.910261205261D+04  KE= 6.023493319469D+03
 Calling FoFJK, ICntrl=      2127 FMM=F ISym2X=0 I1Cent= 0 IOpClX= 0 NMat=1 NMatS=1 NMatT=0.
 ***** Axes restored to original set *****
 -------------------------------------------------------------------
 Center     Atomic                   Forces (Hartrees/Bohr)
 Number     Number              X              Y              Z
 -------------------------------------------------------------------
      1        8          -0.001137504   -0.044883214    0.024898961
      2        5          -0.011529157    0.013059366   -0.010547871
      3        6          -0.001459263   -0.021280156   -0.021265584
      4        6          -0.011843403    0.009817032   -0.008897088
      5        6          -0.006915274    0.010397306   -0.000162840
      6        6           0.000501857    0.001444715    0.005502140
      7        6           0.017040278   -0.014626582    0.007525526
      8        6          -0.010652061    0.043098643    0.006842441
      9        6          -0.028485796   -0.002436490   -0.004264500
     10        6           0.028961575    0.004397064   -0.030533756
     11        6          -0.003138172    0.003256106    0.026266799
     12        6           0.011535240   -0.000922979   -0.006417894
     13        6           0.015383194   -0.001532063   -0.000125015
     14        6           0.002379452   -0.000808676   -0.011895525
     15        6          -0.096209736   -0.030519039   -0.049698191
     16       35          -0.004736501    0.005150937   -0.001560326
     17        6           0.038440253    0.009736691    0.040524732
     18        8           0.066426347    0.019647704    0.026761483
     19        6           0.025698821   -0.017616310   -0.000988880
     20       35           0.004948300   -0.002788623   -0.004149942
     21        8          -0.000735318    0.011266678    0.007992694
     22        1           0.006002421    0.007655779    0.017724338
     23        1           0.010542481   -0.004486395    0.011080383
     24        1          -0.000676015   -0.002632413   -0.002519750
     25        1          -0.006718942    0.003187988   -0.009188735
     26        1           0.008198896    0.002660664    0.009203184
     27        1          -0.001915419    0.000496089   -0.007789695
     28        1          -0.004574525    0.001122450   -0.002726661
     29        1           0.000137860    0.003190461    0.012415026
     30        1           0.003125192    0.012995396   -0.014834754
     31        1          -0.031957876   -0.000665755    0.008540430
     32        1           0.000077721   -0.016809735   -0.014976826
     33        1          -0.017186073   -0.003021491   -0.003316509
     34        7          -0.012791224   -0.002650859    0.009923423
     35        1           0.003505142   -0.002842233   -0.010094259
     36        1           0.009757228    0.007941944    0.000753040
 -------------------------------------------------------------------
 Cartesian Forces:  Max     0.096209736 RMS     0.018681027

 GradGradGradGradGradGradGradGradGradGradGradGradGradGradGradGradGradGrad
 Berny optimization.
 FormGI is forming the generalized inverse of G from B-inverse, IUseBI=4.
 Internal  Forces:  Max     0.073463060 RMS     0.010771150
 Search for a local minimum.
 Step number   1 out of a maximum of  190
 All quantities printed in internal units (Hartrees-Bohrs-Radians)
 Mixed Optimization -- RFO/linear search
 Second derivative matrix not updated -- first step.
 ITU=  0
     Eigenvalues ---    0.00230   0.00230   0.00230   0.00238   0.00268
     Eigenvalues ---    0.00302   0.00766   0.01080   0.01369   0.01520
     Eigenvalues ---    0.01576   0.01979   0.02004   0.02037   0.02050
     Eigenvalues ---    0.02069   0.02071   0.02086   0.02094   0.02097
     Eigenvalues ---    0.02114   0.02114   0.02115   0.02135   0.02138
     Eigenvalues ---    0.02152   0.02169   0.03079   0.04248   0.04981
     Eigenvalues ---    0.05152   0.05162   0.05752   0.06074   0.11256
     Eigenvalues ---    0.13691   0.15999   0.15999   0.16000   0.16000
     Eigenvalues ---    0.16000   0.16000   0.16000   0.16000   0.16000
     Eigenvalues ---    0.16000   0.16000   0.16462   0.17675   0.17771
     Eigenvalues ---    0.17971   0.20129   0.20915   0.21986   0.22000
     Eigenvalues ---    0.22018   0.22961   0.22984   0.23999   0.23999
     Eigenvalues ---    0.24982   0.24999   0.24999   0.24999   0.24999
     Eigenvalues ---    0.24999   0.25000   0.25000   0.25000   0.26928
     Eigenvalues ---    0.27854   0.28962   0.35740   0.36247   0.36515
     Eigenvalues ---    0.37078   0.37230   0.37337   0.37438   0.37499
     Eigenvalues ---    0.37765   0.38367   0.38862   0.39885   0.40558
     Eigenvalues ---    0.41227   0.41805   0.42012   0.42416   0.44273
     Eigenvalues ---    0.45002   0.45057   0.45714   0.45736   0.46359
     Eigenvalues ---    0.46853   0.46956   0.47688   0.47688   0.50991
     Eigenvalues ---    0.68566   0.72139
 RFO step:  Lambda=-5.67759251D-02 EMin= 2.30000000D-03
 Linear search not attempted -- first point.
 Maximum step size (   0.300) exceeded in Quadratic search.
    -- Step size scaled by   0.764
 Iteration  1 RMS(Cart)=  0.12631585 RMS(Int)=  0.00340312
 Iteration  2 RMS(Cart)=  0.00651822 RMS(Int)=  0.00009817
 Iteration  3 RMS(Cart)=  0.00002099 RMS(Int)=  0.00009773
 Iteration  4 RMS(Cart)=  0.00000000 RMS(Int)=  0.00009773
 Variable       Old X    -DE/DX   Delta X   Delta X   Delta X     New X
                                 (Linear)    (Quad)   (Total)
    R1        2.92458  -0.06339   0.00000  -0.14444  -0.14444   2.78014
    R2        2.44743   0.00079   0.00000   0.00082   0.00082   2.44824
    R3        3.10893  -0.03787   0.00000  -0.10881  -0.10881   3.00012
    R4        3.13495  -0.03851   0.00000  -0.11402  -0.11402   3.02093
    R5        2.65036  -0.01133   0.00000  -0.01680  -0.01679   2.63356
    R6        2.63512   0.00208   0.00000   0.00362   0.00361   2.63873
    R7        1.99830   0.01983   0.00000   0.03401   0.03401   2.03231
    R8        2.63333  -0.00376   0.00000  -0.00584  -0.00583   2.62751
    R9        2.00535   0.01589   0.00000   0.02756   0.02756   2.03290
   R10        2.64838  -0.01219   0.00000  -0.01882  -0.01882   2.62956
   R11        3.60937  -0.00653   0.00000  -0.02128  -0.02128   3.58809
   R12        2.65378  -0.01251   0.00000  -0.01912  -0.01912   2.63466
   R13        2.03696   0.00358   0.00000   0.00652   0.00652   2.04349
   R14        2.63054   0.00283   0.00000   0.00446   0.00445   2.63500
   R15        2.01800   0.01166   0.00000   0.02063   0.02063   2.03863
[...]
 ,-0.00000080,0.00000070,-0.00000124,0.00000957,0.00000010,0.00002034,0
 .00003749,0.00000460,-0.00031080,-0.00008128,0.00007229,0.00000263,0.0
 0000048,0.00000007,0.00000049,-0.00000302,-0.00000043,0.,0.00000433,-0
 .00003099,0.00907651,-0.00328454,0.00001695,-0.04530514,0.00915870,0.0
 7032817,-0.00020248,0.00010897,0.00003357,0.00037804,-0.00027965,-0.00
 019747,0.00000292,-0.00003392,0.00000788,-0.00003673,0.00002530,0.0000
 3432,0.00003651,-0.00004753,-0.00000952,-0.00003093,0.00003333,-0.0000
 0397,0.00003297,0.00002481,-0.00003881,-0.00016726,0.00008525,0.000044
 62,-0.00048076,-0.00015306,0.00028676,0.00007012,0.00015802,-0.0000535
 3,0.00004329,0.00011498,-0.00000653,0.00002912,0.00012456,0.00001926,-
 0.00018740,-0.00004932,0.00015997,0.00010350,0.00002482,-0.00016863,0.
 00045206,0.00031347,-0.00000981,-0.00003292,0.00004766,0.00000765,-0.0
 0222303,0.00215379,-0.00167866,-0.00020118,0.00003046,0.00022545,-0.00
 357080,-0.01426992,-0.01221269,0.00007169,0.00001389,-0.00006774,-0.01
 434102,-0.02549682,-0.04303498,0.00002126,-0.00001854,0.00001681,0.000
 00560,0.00000808,0.00000023,-0.00000047,0.00001051,0.00000625,0.000021
 79,-0.00000229,0.00000122,0.00005096,-0.00088043,-0.00003413,0.0000373
 1,0.00003663,-0.00000749,0.00000563,0.00001045,0.00001008,-0.00008746,
 -0.00003907,0.00015527,0.00112747,0.00061076,0.00061204,-0.00050670,-0
 .00066408,-0.00064221,0.01836933,-0.00043976,-0.00016685,-0.00023662,0
 .00025701,0.00024491,-0.00038849,0.00001322,-0.00001334,-0.00000793,-0
 .00000849,0.00000419,0.00001864,0.00002302,-0.00004475,-0.00000238,-0.
 00000848,0.00002388,0.00000512,0.00000143,0.00000052,-0.00002291,-0.00
 002020,0.00001595,0.00006650,-0.00026134,-0.00013174,0.00039064,0.0001
 1680,0.00009602,-0.00005523,0.00000582,0.00007794,0.00001405,0.0000248
 6,0.00006922,-0.00000512,-0.00013770,-0.00003036,0.00011348,0.00007530
 ,0.00005966,-0.00001733,0.00075578,-0.00030116,0.00084368,-0.00001657,
 0.00002707,0.00000576,0.00168990,-0.00030843,0.00216090,-0.00006395,0.
 00012203,-0.00004090,0.00423153,0.01080553,0.01596682,0.00006360,-0.00
 000315,-0.00006033,-0.04470109,-0.34412109,-0.26789362,-0.00000201,-0.
 00001497,0.00000839,-0.00000035,-0.00000281,-0.00000198,-0.00000200,0.
 00000106,0.00000065,-0.00000358,-0.00000448,0.00000160,-0.00035338,-0.
 00071952,-0.00034135,0.00002230,0.00002594,-0.00001037,0.00000083,0.00
 000511,0.00000472,-0.00007602,0.00001346,0.00004529,0.00014278,0.00050
 655,0.00149367,0.00068694,-0.00012793,0.00058722,0.03866221,0.33294338
 ,0.00043666,0.00103843,-0.00026096,-0.00042800,-0.00078279,0.00067771,
 -0.00003045,-0.00001316,0.00005599,-0.00001503,0.00002954,-0.00001400,
 0.00001616,-0.00002911,-0.00000481,-0.00000027,0.00002038,-0.00003123,
 0.00002812,-0.00002119,0.00002330,-0.00000311,0.00011588,-0.00009834,0
 .00015194,0.00008706,-0.00040233,0.00005836,0.00000787,-0.00008998,-0.
 00004974,-0.00012446,0.00001658,0.00002845,-0.00008510,-0.00005574,0.0
 0006814,0.00004263,-0.00004367,-0.00003524,0.00016089,0.00005294,-0.00
 037145,0.00005439,-0.00005749,-0.00001329,0.00002613,-0.00000188,-0.00
 366676,0.00354687,-0.00589916,0.00009427,0.00018257,-0.00004255,-0.002
 77828,-0.02797603,-0.02189790,0.00001686,-0.00001950,-0.00003282,-0.05
 146128,-0.22110756,-0.22744741,0.00000770,0.00001291,-0.00000862,-0.00
 000141,0.00000970,0.00000203,-0.00000023,-0.00000537,0.00000029,0.0000
 0362,-0.00002587,-0.00002296,-0.00015017,0.00005889,0.00075187,-0.0000
 0946,-0.00001400,0.00000858,0.00000622,-0.00000841,-0.00000901,0.00013
 394,-0.00000684,-0.00005223,0.00127983,-0.00043579,0.00128796,0.000016
 32,-0.00023355,0.00126807,0.05645342,0.24673525,0.25258056,-0.00057741
 ,-0.00328007,0.00095472,0.00014620,0.00001853,-0.00054299,0.00004480,-
 0.00000635,-0.00004376,0.00000891,-0.00002727,-0.00000720,-0.00000568,
 0.00000406,0.00001693,0.00000924,-0.00000809,-0.00000929,0.00000177,-0
 .00001051,0.00006032,0.00006599,-0.00012740,0.00015753,-0.00001021,0.0
 0000166,-0.00003156,-0.00000474,-0.00003222,0.00001387,0.00000538,0.00
 002859,-0.00000005,-0.00001060,-0.00000264,0.00001309,0.00001775,-0.00
 000227,-0.00002311,-0.00000275,-0.00001053,0.00001816,0.00717876,-0.00
 265689,0.01453923,0.00001019,-0.00001353,-0.00000414,-0.10390758,0.035
 44052,-0.09990608,-0.00041061,-0.00120893,-0.00055285,0.00018041,-0.00
 108948,-0.00122219,-0.00001673,0.00000337,0.00001667,0.00096199,0.0004
 3604,0.00080843,-0.00000464,0.00000476,-0.00000190,0.00000200,-0.00000
 759,-0.00000168,0.00000027,-0.00000930,-0.00000482,-0.00003495,-0.0000
 1579,-0.00001262,-0.00001615,0.00000011,-0.00003084,0.00000012,-0.0000
 0389,0.00000139,-0.00000375,0.00000051,0.00000184,-0.00000283,0.000001
 51,0.00000142,-0.00008317,0.00008366,-0.00006844,0.00024777,-0.0004119
 3,0.00000629,0.00041324,0.00018458,0.00018058,0.12287950,-0.00251693,-
 0.00528487,0.00187942,0.00050320,-0.00005476,-0.00101927,0.00007317,-0
 .00001848,-0.00009361,0.00002212,-0.00005082,0.00000529,-0.00002326,0.
 00002865,0.00002428,-0.00000390,-0.00000969,-0.00000314,-0.00005478,-0
 .00002063,0.00005054,0.00001968,-0.00023555,0.00028589,-0.00003971,-0.
 00004029,-0.00000902,-0.00004918,0.00003720,0.00007288,-0.00001630,0.0
 0005719,0.00000625,-0.00000931,0.00001068,0.00001180,0.00000598,0.0000
 0358,-0.00000786,-0.00001580,0.00000257,0.00002309,0.01243550,-0.00895
 842,0.02517401,0.00001874,-0.00003111,-0.00000594,0.03510767,-0.070159
 34,0.06636876,0.00087425,0.00077769,-0.00347614,-0.01116751,0.00953065
 ,-0.02031306,-0.00001461,0.00000599,0.00001603,-0.00033739,-0.00487136
 ,-0.00514640,-0.00000325,0.00000007,0.00000555,0.00000584,-0.00001239,
 -0.00000186,0.00001049,-0.00000666,0.00000061,0.00001874,0.00002473,0.
 00004353,-0.00002169,-0.00006744,-0.00001581,0.00001267,-0.00000280,0.
 00000437,-0.00000318,-0.00000018,0.00000747,-0.00001221,0.00000137,0.0
 0001061,-0.00055751,0.00060277,0.00100184,0.00064510,0.00071938,0.0006
 4188,-0.00050740,0.00060920,-0.00160017,-0.04242530,0.08041531,0.00126
 426,0.00124437,-0.00065664,-0.00020122,-0.00009912,0.00040633,-0.00002
 687,0.00000300,0.00003656,-0.00000852,0.00002061,-0.00000145,0.0000142
 7,-0.00001897,-0.00000771,-0.00000643,0.00001470,-0.00000410,0.0000168
 5,-0.00000026,-0.00002091,-0.00001290,0.00009052,-0.00010104,-0.000027
 47,-0.00002953,0.00001380,0.00005235,0.00001576,-0.00002846,0.00001190
 ,-0.00001239,-0.00000125,0.00001185,0.00001039,-0.00000662,-0.00002396
 ,-0.00000542,0.00002051,0.00004141,0.00002084,-0.00001939,-0.00697441,
 0.00260382,-0.01022909,-0.00001134,0.00001857,0.00000283,-0.10273834,0
 .06824578,-0.23576962,0.00078929,-0.00066350,0.00215757,-0.00893734,0.
 00906562,-0.01808500,0.00002158,-0.00000299,-0.00001902,-0.00011727,-0
 .00504388,-0.00302325,0.00000188,-0.00000132,-0.00000172,-0.00000241,0
 .00000469,0.00000056,-0.00000111,0.00000201,0.00000182,0.00000820,-0.0
 0000715,-0.00000172,-0.00003285,-0.00003412,0.00004254,-0.00000218,0.0
 0000535,-0.00000266,0.00000161,0.00000166,-0.00000370,-0.00000952,-0.0
 0000102,-0.00000357,-0.00033355,-0.00016883,0.00094960,0.00051613,0.00
 005336,0.00008662,-0.00054374,0.00046374,-0.00093743,0.10939118,-0.070
 33300,0.25253311,-0.00187693,-0.00380873,0.00175077,-0.00011878,0.0025
 8470,-0.00141380,0.00004232,0.00011187,-0.00017621,0.00013390,-0.00010
 327,-0.00012517,-0.00005674,-0.00000203,0.00010563,0.00007146,0.000021
 65,0.00001512,0.00006182,-0.00010360,0.00026732,0.00027274,-0.00048222
 ,0.00008190,0.00013219,0.00001862,0.00003767,-0.00007046,-0.00025980,0
 .00022786,0.00006847,0.00012151,0.00003048,-0.00007677,-0.00001063,0.0
 0005801,0.00011231,-0.00003439,-0.00014962,-0.00001907,-0.00007713,0.0
 0003637,-0.02572166,0.00618343,0.00661262,0.00006547,-0.00008266,-0.00
 002891,-0.21703846,0.06623818,0.05245173,-0.00358908,-0.00488864,0.002
 38017,-0.01715957,0.00954890,0.00915763,-0.00007995,0.00000649,0.00009
 255,0.00289362,-0.00052139,0.00003168,-0.00003595,0.00003358,-0.000037
 26,0.00000014,-0.00002281,-0.00000638,-0.00000892,-0.00009260,-0.00002
 603,-0.00034711,0.00003278,-0.00001000,-0.00007530,0.00001460,-0.00013
 916,-0.00003268,-0.00001978,-0.00000676,-0.00001594,0.00000287,0.00000
 241,-0.00000913,0.00001352,-0.00003435,0.00152304,-0.00014663,-0.00149
 397,0.00085260,0.00161392,0.00161208,0.00015726,-0.00047663,-0.0003813
 6,-0.02159681,0.00670386,0.00576118,0.58168521,-0.00595369,-0.00248295
 ,0.00325180,0.00033824,0.00178244,-0.00203381,0.00002879,0.00003627,-0
 .00005864,0.00002966,-0.00012214,0.00008580,-0.00010637,0.00025081,-0.
 00002235,-0.00003667,-0.00020696,0.00020390,-0.00008855,0.00035044,-0.
 00041724,0.00003162,-0.00024442,0.00030173,-0.00015906,-0.00028709,0.0
 0007711,-0.00023777,-0.00007160,0.00043794,0.00006041,0.00024534,-0.00
 001199,-0.00005832,0.00013068,0.00010269,0.00002493,-0.00010216,-0.000
 08152,-0.00000291,0.00006239,-0.00003045,-0.01991818,0.00999794,0.0075
 5587,0.00008846,-0.00017057,0.00000640,0.02955837,-0.09587753,0.014437
 00,-0.00740311,-0.00530171,0.00064308,0.03310660,-0.00990145,-0.009602
 52,-0.00007373,0.00004602,0.00009312,0.00034687,0.00145734,-0.00057389
 ,-0.00000370,-0.00004313,0.00004994,0.00000277,-0.00001682,0.00000364,
 -0.00000725,0.00005078,-0.00000558,0.00012239,0.00062269,0.00004448,-0
 .00005256,-0.00024157,0.00002123,0.00004877,0.00003207,-0.00000682,-0.
 00001158,0.00000236,0.00001973,-0.00004229,-0.00000397,0.00008029,0.00
 071711,0.00312766,0.00160796,0.00026608,-0.00393566,-0.00581560,-0.000
 02788,0.00033216,0.00079887,0.01540137,-0.00385825,-0.00488155,0.03777
 745,0.43847647,0.00241830,0.00243563,-0.00142220,0.00031043,-0.0019792
 6,0.00054291,-0.00003454,-0.00010413,0.00011737,-0.00008636,0.00006686
 ,0.00011094,0.00003116,-0.00002069,-0.00008464,-0.00002750,-0.00001158
 ,0.00000503,0.00006549,0.00020036,-0.00017410,-0.00015707,0.00029636,0
 .00010789,-0.00015412,-0.00013075,0.00006524,0.00007900,0.00027721,-0.
 00015850,-0.00000075,-0.00005944,-0.00002464,0.00006421,0.00005640,-0.
 00002743,-0.00012336,-0.00001358,0.00013640,0.00007859,0.00010284,-0.0
 0006797,0.01492849,-0.00601974,-0.00565157,-0.00004368,0.00006316,0.00
 002890,0.01626753,0.01390053,-0.09537221,0.00460391,0.00310789,0.00051
 755,0.02620279,-0.00993616,-0.00801187,0.00007836,0.00000234,-0.000079
 38,0.00256704,0.00026631,0.00205788,0.00001286,-0.00003249,0.00002984,
 -0.00000479,0.00000837,0.00000149,-0.00002477,0.00006328,-0.00000163,0
 .00008130,-0.00002650,-0.00016301,-0.00003792,-0.00009518,0.00011128,0
 .00002359,0.00003539,-0.00000801,0.00000988,0.00000224,-0.00000656,-0.
 00001780,-0.00001211,0.00004429,-0.00083824,0.00135916,0.00120175,0.00
 063053,-0.00390479,-0.00340563,0.00062693,-0.00004456,0.00106291,-0.02
 535443,0.00738008,0.01181827,0.02544986,-0.25153336,0.48857827,0.00130
 782,-0.00022515,-0.00020019,-0.00002944,0.00002070,-0.00006492,0.00001
 512,-0.00001225,0.00000240,-0.00000834,0.00001060,-0.00000028,0.000005
 80,-0.00002403,-0.00000379,0.00000960,0.00001218,-0.00002348,0.0000006
 3,-0.00003699,0.00004082,0.00001525,-0.00000261,0.00004001,-0.00000129
 ,-0.00003061,0.00002921,-0.00001931,0.00000303,-0.00003427,0.00001615,
 0.00002160,0.00000201,0.00000214,0.00000908,0.00000990,-0.00001077,-0.
 00001245,-0.00000546,0.00002328,0.00000563,-0.00001373,-0.00432616,0.0
 0621865,-0.00039613,-0.00001023,0.00001625,0.00000071,-0.01952807,-0.0
 3099347,0.01498466,-0.00262196,-0.00237076,0.00081360,0.00155664,-0.00
 118698,0.00007301,0.00000009,0.00000350,0.00000074,-0.00010545,0.00016
 323,-0.00045926,-0.00000104,0.00000188,-0.00000168,0.00000131,-0.00000
 028,-0.00000006,0.00000540,0.00000317,0.00000300,-0.00001792,-0.000058
 63,-0.00002109,-0.00003725,-0.00002749,0.00000112,-0.00000058,0.000004
 47,-0.00000179,-0.00000031,0.00000113,0.00000037,-0.00000454,-0.000001
 82,0.00000781,0.00027340,0.00118384,0.00045206,0.00019017,0.00006833,-
 0.00064988,0.00006048,-0.00002259,0.00015478,0.00031925,-0.00016879,-0
 .00070725,-0.15434017,-0.14110684,0.07435592,0.16595004,-0.00147614,-0
 .00046262,0.00087320,0.00002942,0.00087805,-0.00048919,0.00001382,0.00
 004290,-0.00005472,0.00003811,-0.00004965,-0.00002339,-0.00002245,0.00
 004174,0.00003081,-0.00000358,-0.00003129,0.00005159,-0.00001535,0.000
 01516,-0.00004542,0.00003421,-0.00015204,0.00002214,0.00000946,-0.0000
 1487,-0.00001204,-0.00005265,-0.00010436,0.00013685,-0.00000577,0.0000
 4581,0.00001624,-0.00002708,-0.00000173,0.00001541,0.00003156,-0.00000
 393,-0.00003968,-0.00002526,-0.00001066,0.00001880,0.00310736,-0.00201
 783,-0.00084670,0.00003117,-0.00005014,-0.00000818,0.01104567,0.007085
 34,-0.01066477,0.00004219,0.00094239,0.00014433,0.00134360,0.00240550,
 -0.00077721,-0.00002580,0.00000356,0.00002966,-0.00009068,-0.00051986,
 0.00044498,-0.00000580,0.00000012,-0.00000039,0.00000173,-0.00000678,-
 0.00000070,0.00000124,-0.00002148,-0.00000337,-0.00002950,0.00012433,0
 .00007611,0.00000740,0.00000519,-0.00000684,0.00000201,-0.00000746,0.0
 0000115,-0.00000520,-0.00000004,0.00000497,-0.00000119,0.00000369,-0.0
 0000236,-0.00022024,-0.00041395,0.00037926,-0.00008066,-0.00021700,0.0
 0003587,0.00000774,0.00000873,-0.00014417,-0.00040701,0.00028132,0.000
 39668,-0.15797215,-0.27591540,0.15420188,0.15271695,0.27929214,0.00031
 223,-0.00039928,0.00046500,-0.00005344,0.00029493,-0.00001659,0.000015
 29,0.00002167,-0.00002439,0.00002054,-0.00002829,-0.00002221,-0.000018
 50,0.00002873,0.00001785,0.00000485,-0.00001771,0.00003038,-0.00002004
 ,-0.00001232,-0.00001418,0.00004337,-0.00009369,0.00003307,0.00005650,
 0.00003859,-0.00002031,-0.00006255,-0.00010180,0.00002214,-0.00000614,
 0.00000911,0.00001485,-0.00001905,-0.00002370,0.00000768,0.00004465,0.
 00000744,-0.00004933,-0.00002597,-0.00003232,0.00002952,0.00002701,-0.
 00035333,0.00064902,0.00002063,-0.00003407,-0.00000906,0.00777411,0.00
 522475,-0.00540274,-0.00005521,-0.00020401,0.00005323,-0.00042220,0.00
 182758,-0.00007499,-0.00002747,-0.00000149,0.00002675,-0.00062801,-0.0
 0065707,-0.00003578,-0.00000165,0.00000775,-0.00000524,0.00000252,-0.0
 0000230,0.00000008,0.00000723,-0.00001773,0.00000230,-0.00003466,0.000
 09783,0.00002991,0.00000853,0.00005365,-0.00003234,-0.00000645,-0.0000
 1110,0.00000128,-0.00000297,-0.00000100,0.00000203,0.00001152,0.000004
 31,-0.00001591,0.00017598,-0.00085687,-0.00016624,-0.00033164,-0.00002
 467,0.00069188,0.00021013,-0.00009572,-0.00030319,-0.00038357,-0.00022
 966,0.00028368,0.05496739,0.11234176,-0.08265209,-0.08031634,-0.141940
 11,0.09851979,0.00158284,0.00068717,-0.00003441,-0.00020580,-0.0021203
 2,0.00138976,-0.00002486,-0.00008981,0.00012123,-0.00008411,0.00008975
 ,0.00005485,0.00005154,-0.00004233,-0.00005911,-0.00004038,0.00004022,
 -0.00005009,0.00000668,-0.00002376,-0.00005053,-0.00018401,0.00034652,
 -0.00008549,-0.00004793,0.00000139,0.00000736,0.00010757,0.00016108,-0
 .00029106,-0.00001709,-0.00010260,-0.00001120,0.00006406,-0.00000984,-
 0.00004321,-0.00006443,0.00002202,0.00007786,0.00006321,0.00004676,-0.
 00002193,-0.00284024,0.00216212,-0.00210986,-0.00005386,0.00008226,0.0
 0001387,-0.02032062,0.01177376,-0.03269063,0.00110476,-0.00063393,0.00
 054164,-0.00003647,0.00026582,-0.00155736,0.00006109,-0.00001065,-0.00
 006847,0.00039302,-0.00057827,0.00013353,0.00001923,-0.00000552,0.0000
 0601,-0.00000129,0.00001657,0.00000147,0.00000246,0.00003102,0.0000188
 8,0.00010448,-0.00010029,-0.00002872,-0.00004734,0.00001935,0.00007341
 ,-0.00000030,0.00001596,-0.00000511,0.00001050,0.00000040,-0.00000911,
 0.00000528,-0.00000796,-0.00000223,0.00001750,0.00010775,0.00020301,0.
 00021135,-0.00017699,-0.00003775,0.00057859,-0.00036375,0.00026015,-0.
 00580492,0.00149100,0.00281475,-0.14580304,0.05734057,-0.14198082,0.01
 131028,-0.00799713,0.01871339,0.15988225,0.00127700,-0.00145278,0.0001
 7700,-0.00093808,-0.00097369,0.00129379,0.00000847,-0.00007053,0.00012
 733,-0.00006916,0.00012472,-0.00004060,0.00010300,-0.00023373,-0.00004
 030,0.00011444,0.00011251,-0.00012661,0.00013070,-0.00014992,0.0002733
 8,0.00010121,0.00023739,-0.00008699,0.00011536,0.00019273,-0.00003849,
 0.00013605,-0.00003231,-0.00031133,-0.00001541,-0.00014719,0.00003270,
 0.00003941,-0.00008372,-0.00006737,-0.00003510,0.00005542,0.00006182,0
 .00002233,-0.00004958,0.00000162,-0.00248748,0.00431330,-0.00199526,-0
 .00008153,0.00015275,0.00000397,0.00971754,-0.00654606,0.00751244,0.00
 090650,-0.00109801,0.00046858,0.00155494,-0.00040937,0.00245610,0.0000
 5380,-0.00002887,-0.00006606,-0.00164377,0.00030556,0.00048045,-0.0000
 0171,0.00003156,-0.00003490,-0.00000684,0.00001141,-0.00000261,-0.0000
 0903,-0.00002776,-0.00000882,-0.00019935,-0.00021113,-0.00031911,0.000
 03789,0.00015207,-0.00004176,-0.00004267,-0.00001613,-0.00000184,0.000
 00609,0.00000133,-0.00001449,0.00002772,-0.00000035,-0.00003990,0.0000
 7500,-0.00025030,-0.00017422,-0.00036559,0.00036871,-0.00003235,-0.000
 13580,-0.00000192,-0.00029522,0.00014774,0.00057468,-0.00097844,0.0380
 7713,-0.05822049,0.09009802,0.01581752,-0.01117491,0.02518013,-0.06243
 833,0.07454460,0.00123040,0.00065181,-0.00142552,0.00022053,0.00033401
 ,0.00025444,-0.00001106,0.00006783,-0.00007403,0.00003366,-0.00001016,
 -0.00007666,-0.00000772,-0.00003615,0.00005794,0.00002150,0.00007377,-
 0.00006033,-0.00001191,-0.00015374,0.00024020,0.00004781,-0.00007151,-
 0.00007745,0.00005555,0.00012812,-0.00004499,-0.00004396,-0.00004036,-
 0.00009513,0.00000759,-0.00000936,-0.00000652,-0.00001298,-0.00002332,
 0.00000836,0.00002816,0.00000312,-0.00001923,-0.00003520,-0.00005699,-
 0.00000040,-0.00043685,0.00064265,0.00057578,0.00000193,0.00000618,-0.
 00001357,0.00608319,-0.00771132,0.00868441,0.00009128,0.00003604,0.000
 03609,0.00182560,-0.00122902,0.00133666,-0.00001705,-0.00000458,0.0000
 1261,-0.00010365,0.00019890,-0.00067718,0.00000338,0.00001940,-0.00002
 071,0.00000400,0.00000154,-0.00000098,0.00000314,-0.00003437,-0.000005
 68,-0.00012054,-0.00017058,-0.00005969,0.00008774,-0.00000545,-0.00002
 509,-0.00001441,-0.00001250,0.00000243,0.00000070,-0.00000128,0.000000
 62,0.00001434,-0.00000074,-0.00000733,-0.00008338,0.00014986,-0.000124
 58,-0.00021169,0.00007909,-0.00056075,-0.00020194,0.00029871,-0.000075
 08,0.00201991,-0.00075922,0.00057060,-0.15710149,0.13291098,-0.3092267
 9,-0.00807252,-0.00182069,-0.01203587,0.15470595,-0.12345067,0.3129334
 4\\-0.00001891,0.00002090,0.00000392,0.00001025,0.00001559,-0.00000389
 ,-0.00000176,0.00000785,0.00000014,0.00000144,-0.00000255,-0.00000202,
 0.00000169,0.00000145,-0.00000187,0.00000342,-0.00000228,-0.00000017,-
 0.00000171,0.00000422,0.00000038,0.00000365,-0.00000981,0.00000256,0.0
 0001065,0.00000768,0.00000068,-0.00001435,-0.00002015,-0.00000030,0.00
 000481,0.00000343,-0.00000254,0.00000057,-0.00000008,0.00000443,-0.000
 00062,0.00000035,0.00000069,-0.00000239,-0.00000413,0.00000259,0.00000
 983,-0.00002715,0.00000758,0.00000235,0.00000119,-0.00000153,-0.000007
 76,0.00000360,-0.00001588,0.00000369,0.00000894,0.00000332,-0.00001162
 ,0.00001039,-0.00002281,0.00000145,-0.00000302,0.00000115,0.00000651,-
 0.00000930,0.00001931,0.00000149,-0.00000348,-0.00000257,0.00000207,0.
 00000188,-0.00000139,-0.00000030,0.00000245,-0.00000141,0.00000069,-0.
 00000011,-0.00000192,-0.00000354,-0.00000293,-0.00000337,0.,-0.0000018
 2,0.00000036,0.00000117,-0.00000234,-0.00000291,-0.00000007,-0.0000018
 7,-0.00000022,-0.00000337,-0.00000200,0.00000932,0.00000579,-0.0000050
 8,0.00000155,-0.00000232,0.00000354,-0.00000218,-0.00000308,0.00000148
 ,0.00000533,-0.00000185,-0.00000929,-0.00000132,0.00000385,0.00000768,
 0.00000060,-0.00000172,0.00000475,0.00000440\\\@


 IT IS UNWORTHY OF EXCELLENT MEN TO LOSE HOURS LIKE SLAVES IN THE LABOR
 OF CALCULATION WHICH COULD BE SAFELY RELEGATED TO ANYONE ELSE
 IF A MACHINE WERE USED.
    -- G.W. VON LEIBNIZ
 Job cpu time:       0 days 23 hours 55 minutes 46.7 seconds.
 Elapsed time:       0 days  0 hours 59 minutes 52.8 seconds.
 File lengths (MBytes):  RWF=   3280 Int=      0 D2E=      0 Chk=     64 Scr=     32
 Normal termination of Gaussian 16 at Mon Oct 16 18:37:16 2017.
