   1   1   0   0
  0.5120000E+03  0.8000000E-09  0.8000000E-09  0.8000000E-09  0.5000000E-15
   1.0000000000000000E-004
  CAR 
 O atom in a box                         
      3.98299762    -27.08781105  301     -7.11522350      1.00000000
    -27.088  0.0000E+00  0.0000E+00  0.0000E+00  0.0000E+00
    -26.984  0.0000E+00  0.0000E+00  0.0000E+00  0.0000E+00
    -26.881  0.0000E+00  0.0000E+00  0.0000E+00  0.0000E+00
    -26.777  0.0000E+00  0.0000E+00  0.0000E+00  0.0000E+00
    -26.674  0.0000E+00  0.0000E+00  0.0000E+00  0.0000E+00
    -26.570  0.0000E+00  0.0000E+00  0.0000E+00  0.0000E+00
    -26.466  0.0000E+00  0.0000E+00  0.0000E+00  0.0000E+00
    -26.363  0.0000E+00  0.0000E+00  0.0000E+00  0.0000E+00
    -26.259  0.5360E-15  0.0000E+00  0.5551E-16  0.0000E+00
    -26.156  0.2080E-12  0.0000E+00  0.2159E-13  0.0000E+00
    -26.052  0.4415E-10  0.0000E+00  0.4594E-11  0.0000E+00
    -25.949  0.5533E-08  0.0000E+00  0.5776E-09  0.0000E+00
    -25.845  0.4098E-06  0.0000E+00  0.4302E-07  0.0000E+00
    -25.741  0.1796E-04  0.0000E+00  0.1904E-05  0.0000E+00
    -25.638  0.4670E-03  0.0000E+00  0.5027E-04  0.0000E+00
    -25.534  0.7211E-02  0.0000E+00  0.7972E-03  0.0000E+00
    -25.431  0.6629E-01  0.0000E+00  0.7663E-02  0.0000E+00
    -25.327  0.3634E+00  0.0000E+00  0.4530E-01  0.0000E+00
    -25.224  0.1190E+01  0.0000E+00  0.1686E+00  0.0000E+00
    -25.120  0.2331E+01  0.0000E+00  0.4100E+00  0.0000E+00
    -25.016  0.2734E+01  0.0000E+00  0.6931E+00  0.0000E+00
    -24.913  0.1920E+01  0.0000E+00  0.8920E+00  0.0000E+00
    -24.809  0.8069E+00  0.0000E+00  0.9756E+00  0.0000E+00
    -24.706  0.2028E+00  0.0000E+00  0.9966E+00  0.0000E+00
    -24.602  0.3042E-01  0.0000E+00  0.9997E+00  0.0000E+00
    -24.499  0.2720E-02  0.0000E+00  0.1000E+01  0.0000E+00
    -24.395  0.1447E-03  0.0000E+00  0.1000E+01  0.0000E+00
    -24.291  0.4567E-05  0.0000E+00  0.1000E+01  0.0000E+00
    -24.188  0.8544E-07  0.0000E+00  0.1000E+01  0.0000E+00
    -24.084  0.9455E-09  0.0000E+00  0.1000E+01  0.0000E+00
    -23.981  0.6181E-11  0.0000E+00  0.1000E+01  0.0000E+00
    -23.877  0.2358E-13  0.0000E+00  0.1000E+01  0.0000E+00
    -23.774  0.0000E+00  0.0000E+00  0.1000E+01  0.0000E+00
    -23.670  0.0000E+00  0.0000E+00  0.1000E+01  0.0000E+00
    -23.566  0.0000E+00  0.0000E+00  0.1000E+01  0.0000E+00
    -23.463  0.0000E+00  0.0000E+00  0.1000E+01  0.0000E+00
    -23.359  0.0000E+00  0.0000E+00  0.1000E+01  0.0000E+00
    -23.256  0.0000E+00  0.0000E+00  0.1000E+01  0.0000E+00
    -23.152  0.0000E+00  0.0000E+00  0.1000E+01  0.0000E+00
    -23.049  0.0000E+00  0.0000E+00  0.1000E+01  0.0000E+00
    -22.945  0.0000E+00  0.2626E-13  0.1000E+01  0.2720E-14
    -22.841  0.0000E+00  0.6724E-11  0.1000E+01  0.6992E-12
    -22.738  0.0000E+00  0.1020E-08  0.1000E+01  0.1064E-09
    -22.634  0.0000E+00  0.9142E-07  0.1000E+01  0.9574E-08
    -22.531  0.0000E+00  0.4846E-05  0.1000E+01  0.5115E-06
    -22.427  0.0000E+00  0.1522E-03  0.1000E+01  0.1628E-04
    -22.324  0.0000E+00  0.2838E-02  0.1000E+01  0.3103E-03
    -22.220  0.0000E+00  0.3148E-01  0.1000E+01  0.3571E-02
    -22.116  0.0000E+00  0.2081E+00  0.1000E+01  0.2513E-01
    -22.013  0.0000E+00  0.8214E+00  0.1000E+01  0.1102E+00
    -21.909  0.0000E+00  0.1938E+01  0.1000E+01  0.3110E+00
    -21.806  0.0000E+00  0.2738E+01  0.1000E+01  0.5945E+00
    -21.702  0.0000E+00  0.2316E+01  0.1000E+01  0.8344E+00
    -21.599  0.0000E+00  0.1172E+01  0.1000E+01  0.9558E+00
    -21.495  0.0000E+00  0.3551E+00  0.1000E+01  0.9926E+00
    -21.391  0.0000E+00  0.6424E-01  0.1000E+01  0.9992E+00
    -21.288  0.0000E+00  0.6932E-02  0.1000E+01  0.1000E+01
    -21.184  0.0000E+00  0.4451E-03  0.1000E+01  0.1000E+01
    -21.081  0.0000E+00  0.1698E-04  0.1000E+01  0.1000E+01
    -20.977  0.0000E+00  0.3842E-06  0.1000E+01  0.1000E+01
    -20.874  0.0000E+00  0.5144E-08  0.1000E+01  0.1000E+01
    -20.770  0.0000E+00  0.4070E-10  0.1000E+01  0.1000E+01
    -20.667  0.0000E+00  0.1908E-12  0.1000E+01  0.1000E+01
    -20.563  0.0000E+00  0.0000E+00  0.1000E+01  0.1000E+01
    -20.459  0.0000E+00  0.0000E+00  0.1000E+01  0.1000E+01
    -20.356  0.0000E+00  0.0000E+00  0.1000E+01  0.1000E+01
    -20.252  0.0000E+00  0.0000E+00  0.1000E+01  0.1000E+01
    -20.149  0.0000E+00  0.0000E+00  0.1000E+01  0.1000E+01
    -20.045  0.0000E+00  0.0000E+00  0.1000E+01  0.1000E+01
    -19.942  0.0000E+00  0.0000E+00  0.1000E+01  0.1000E+01
    -19.838  0.0000E+00  0.0000E+00  0.1000E+01  0.1000E+01
    -19.734  0.0000E+00  0.0000E+00  0.1000E+01  0.1000E+01
    -19.631  0.0000E+00  0.0000E+00  0.1000E+01  0.1000E+01
    -19.527  0.0000E+00  0.0000E+00  0.1000E+01  0.1000E+01
    -19.424  0.0000E+00  0.0000E+00  0.1000E+01  0.1000E+01
    -19.320  0.0000E+00  0.0000E+00  0.1000E+01  0.1000E+01
    -19.217  0.0000E+00  0.0000E+00  0.1000E+01  0.1000E+01
    -19.113  0.0000E+00  0.0000E+00  0.1000E+01  0.1000E+01
    -19.009  0.0000E+00  0.0000E+00  0.1000E+01  0.1000E+01
    -18.906  0.0000E+00  0.0000E+00  0.1000E+01  0.1000E+01
    -18.802  0.0000E+00  0.0000E+00  0.1000E+01  0.1000E+01
    -18.699  0.0000E+00  0.0000E+00  0.1000E+01  0.1000E+01
    -18.595  0.0000E+00  0.0000E+00  0.1000E+01  0.1000E+01
    -18.492  0.0000E+00  0.0000E+00  0.1000E+01  0.1000E+01
    -18.388  0.0000E+00  0.0000E+00  0.1000E+01  0.1000E+01
    -18.284  0.0000E+00  0.0000E+00  0.1000E+01  0.1000E+01
    -18.181  0.0000E+00  0.0000E+00  0.1000E+01  0.1000E+01
    -18.077  0.0000E+00  0.0000E+00  0.1000E+01  0.1000E+01
    -17.974  0.0000E+00  0.0000E+00  0.1000E+01  0.1000E+01
    -17.870  0.0000E+00  0.0000E+00  0.1000E+01  0.1000E+01
    -17.767  0.0000E+00  0.0000E+00  0.1000E+01  0.1000E+01
    -17.663  0.0000E+00  0.0000E+00  0.1000E+01  0.1000E+01
    -17.559  0.0000E+00  0.0000E+00  0.1000E+01  0.1000E+01
    -17.456  0.0000E+00  0.0000E+00  0.1000E+01  0.1000E+01
    -17.352  0.0000E+00  0.0000E+00  0.1000E+01  0.1000E+01
    -17.249  0.0000E+00  0.0000E+00  0.1000E+01  0.1000E+01
    -17.145  0.0000E+00  0.0000E+00  0.1000E+01  0.1000E+01
    -17.042  0.0000E+00  0.0000E+00  0.1000E+01  0.1000E+01
    -16.938  0.0000E+00  0.0000E+00  0.1000E+01  0.1000E+01
    -16.834  0.0000E+00  0.0000E+00  0.1000E+01  0.1000E+01
    -16.731  0.0000E+00  0.0000E+00  0.1000E+01  0.1000E+01
    -16.627  0.0000E+00  0.0000E+00  0.1000E+01  0.1000E+01
    -16.524  0.0000E+00  0.0000E+00  0.1000E+01  0.1000E+01
    -16.420  0.0000E+00  0.0000E+00  0.1000E+01  0.1000E+01
    -16.317  0.0000E+00  0.0000E+00  0.1000E+01  0.1000E+01
    -16.213  0.0000E+00  0.0000E+00  0.1000E+01  0.1000E+01
    -16.109  0.0000E+00  0.0000E+00  0.1000E+01  0.1000E+01
    -16.006  0.0000E+00  0.0000E+00  0.1000E+01  0.1000E+01
    -15.902  0.0000E+00  0.0000E+00  0.1000E+01  0.1000E+01
    -15.799  0.0000E+00  0.0000E+00  0.1000E+01  0.1000E+01
    -15.695  0.0000E+00  0.0000E+00  0.1000E+01  0.1000E+01
    -15.592  0.0000E+00  0.0000E+00  0.1000E+01  0.1000E+01
    -15.488  0.0000E+00  0.0000E+00  0.1000E+01  0.1000E+01
    -15.384  0.0000E+00  0.0000E+00  0.1000E+01  0.1000E+01
    -15.281  0.0000E+00  0.0000E+00  0.1000E+01  0.1000E+01
    -15.177  0.0000E+00  0.0000E+00  0.1000E+01  0.1000E+01
    -15.074  0.0000E+00  0.0000E+00  0.1000E+01  0.1000E+01
    -14.970  0.0000E+00  0.0000E+00  0.1000E+01  0.1000E+01
    -14.867  0.0000E+00  0.0000E+00  0.1000E+01  0.1000E+01
    -14.763  0.0000E+00  0.0000E+00  0.1000E+01  0.1000E+01
    -14.659  0.0000E+00  0.0000E+00  0.1000E+01  0.1000E+01
    -14.556  0.0000E+00  0.0000E+00  0.1000E+01  0.1000E+01
    -14.452  0.0000E+00  0.0000E+00  0.1000E+01  0.1000E+01
    -14.349  0.0000E+00  0.0000E+00  0.1000E+01  0.1000E+01
    -14.245  0.0000E+00  0.0000E+00  0.1000E+01  0.1000E+01
    -14.142  0.0000E+00  0.0000E+00  0.1000E+01  0.1000E+01
    -14.038  0.0000E+00  0.0000E+00  0.1000E+01  0.1000E+01
    -13.935  0.0000E+00  0.0000E+00  0.1000E+01  0.1000E+01
    -13.831  0.0000E+00  0.0000E+00  0.1000E+01  0.1000E+01
    -13.727  0.0000E+00  0.0000E+00  0.1000E+01  0.1000E+01
    -13.624  0.0000E+00  0.0000E+00  0.1000E+01  0.1000E+01
    -13.520  0.0000E+00  0.0000E+00  0.1000E+01  0.1000E+01
    -13.417  0.0000E+00  0.0000E+00  0.1000E+01  0.1000E+01
    -13.313  0.0000E+00  0.0000E+00  0.1000E+01  0.1000E+01
    -13.210  0.0000E+00  0.0000E+00  0.1000E+01  0.1000E+01
    -13.106  0.0000E+00  0.0000E+00  0.1000E+01  0.1000E+01
    -13.002  0.0000E+00  0.0000E+00  0.1000E+01  0.1000E+01
    -12.899  0.0000E+00  0.0000E+00  0.1000E+01  0.1000E+01
    -12.795  0.0000E+00  0.0000E+00  0.1000E+01  0.1000E+01
    -12.692  0.0000E+00  0.0000E+00  0.1000E+01  0.1000E+01
    -12.588  0.0000E+00  0.0000E+00  0.1000E+01  0.1000E+01
    -12.485  0.0000E+00  0.0000E+00  0.1000E+01  0.1000E+01
    -12.381  0.0000E+00  0.0000E+00  0.1000E+01  0.1000E+01
    -12.277  0.0000E+00  0.0000E+00  0.1000E+01  0.1000E+01
    -12.174  0.0000E+00  0.0000E+00  0.1000E+01  0.1000E+01
    -12.070  0.0000E+00  0.0000E+00  0.1000E+01  0.1000E+01
    -11.967  0.0000E+00  0.0000E+00  0.1000E+01  0.1000E+01
    -11.863  0.0000E+00  0.0000E+00  0.1000E+01  0.1000E+01
    -11.760  0.0000E+00  0.0000E+00  0.1000E+01  0.1000E+01
    -11.656  0.0000E+00  0.0000E+00  0.1000E+01  0.1000E+01
    -11.552  0.0000E+00  0.0000E+00  0.1000E+01  0.1000E+01
    -11.449  0.0000E+00  0.0000E+00  0.1000E+01  0.1000E+01
    -11.345  0.0000E+00  0.0000E+00  0.1000E+01  0.1000E+01
    -11.242  0.3216E-14  0.0000E+00  0.1000E+01  0.1000E+01
    -11.138  0.1243E-11  0.0000E+00  0.1000E+01  0.1000E+01
    -11.035  0.2473E-09  0.0000E+00  0.1000E+01  0.1000E+01
    -10.931  0.2904E-07  0.0000E+00  0.1000E+01  0.1000E+01
    -10.827  0.2016E-05  0.0000E+00  0.1000E+01  0.1000E+01
    -10.724  0.8285E-04  0.0000E+00  0.1000E+01  0.1000E+01
    -10.620  0.2020E-02  0.0000E+00  0.1000E+01  0.1000E+01
    -10.517  0.2925E-01  0.0000E+00  0.1003E+01  0.1000E+01
    -10.413  0.2522E+00  0.0000E+00  0.1029E+01  0.1000E+01
    -10.310  0.1298E+01  0.0000E+00  0.1164E+01  0.1000E+01
    -10.206  0.3988E+01  0.0000E+00  0.1577E+01  0.1000E+01
    -10.102  0.7333E+01  0.0000E+00  0.2336E+01  0.1000E+01
     -9.999  0.8073E+01  0.0000E+00  0.3172E+01  0.1000E+01
     -9.895  0.5321E+01  0.0000E+00  0.3723E+01  0.1000E+01
     -9.792  0.2099E+01  0.0000E+00  0.3941E+01  0.1000E+01
     -9.688  0.4951E+00  0.0000E+00  0.3992E+01  0.1000E+01
     -9.585  0.6969E-01  0.0000E+00  0.3999E+01  0.1000E+01
     -9.481  0.5845E-02  0.0000E+00  0.4000E+01  0.1000E+01
     -9.377  0.2915E-03  0.0000E+00  0.4000E+01  0.1000E+01
     -9.274  0.8629E-05  0.0000E+00  0.4000E+01  0.1000E+01
     -9.170  0.1513E-06  0.0000E+00  0.4000E+01  0.1000E+01
     -9.067  0.1569E-08  0.0000E+00  0.4000E+01  0.1000E+01
     -8.963  0.9612E-11  0.0000E+00  0.4000E+01  0.1000E+01
     -8.860  0.3537E-13  0.0000E+00  0.4000E+01  0.1000E+01
     -8.756  0.0000E+00  0.0000E+00  0.4000E+01  0.1000E+01
     -8.652  0.0000E+00  0.0000E+00  0.4000E+01  0.1000E+01
     -8.549  0.0000E+00  0.0000E+00  0.4000E+01  0.1000E+01
     -8.445  0.0000E+00  0.0000E+00  0.4000E+01  0.1000E+01
     -8.342  0.0000E+00  0.0000E+00  0.4000E+01  0.1000E+01
     -8.238  0.0000E+00  0.1608E-14  0.4000E+01  0.1000E+01
     -8.135  0.0000E+00  0.3152E-12  0.4000E+01  0.1000E+01
     -8.031  0.0000E+00  0.7158E-10  0.4000E+01  0.1000E+01
     -7.927  0.0000E+00  0.9557E-08  0.4000E+01  0.1000E+01
     -7.824  0.0000E+00  0.7539E-06  0.4000E+01  0.1000E+01
     -7.720  0.0000E+00  0.3519E-04  0.4000E+01  0.1000E+01
     -7.617  0.0000E+00  0.9740E-03  0.4000E+01  0.1000E+01
     -7.513  0.0000E+00  0.1601E-01  0.4000E+01  0.1002E+01
     -7.410  0.0000E+00  0.1566E+00  0.4000E+01  0.1018E+01
     -7.306  0.0000E+00  0.9133E+00  0.4000E+01  0.1113E+01
     -7.202  0.0000E+00  0.3182E+01  0.4000E+01  0.1442E+01
     -7.099  0.0000E+00  0.6629E+01  0.4000E+01  0.2129E+01
     -6.995  0.0000E+00  0.8267E+01  0.4000E+01  0.2985E+01
     -6.892  0.0000E+00  0.6174E+01  0.4000E+01  0.3624E+01
     -6.788  0.0000E+00  0.2760E+01  0.4000E+01  0.3910E+01
     -6.685  0.0000E+00  0.7378E+00  0.4000E+01  0.3987E+01
     -6.581  0.0000E+00  0.1178E+00  0.4000E+01  0.3999E+01
     -6.478  0.0000E+00  0.1121E-01  0.4000E+01  0.4000E+01
     -6.374  0.0000E+00  0.6344E-03  0.4000E+01  0.4000E+01
     -6.270  0.0000E+00  0.2133E-04  0.4000E+01  0.4000E+01
     -6.167  0.0000E+00  0.4249E-06  0.4000E+01  0.4000E+01
     -6.063  0.0000E+00  0.5008E-08  0.4000E+01  0.4000E+01
     -5.960  0.0000E+00  0.3487E-10  0.4000E+01  0.4000E+01
     -5.856  0.0000E+00  0.1415E-12  0.4000E+01  0.4000E+01
     -5.753  0.0000E+00  0.0000E+00  0.4000E+01  0.4000E+01
     -5.649  0.0000E+00  0.0000E+00  0.4000E+01  0.4000E+01
     -5.545  0.0000E+00  0.0000E+00  0.4000E+01  0.4000E+01
     -5.442  0.0000E+00  0.0000E+00  0.4000E+01  0.4000E+01
     -5.338  0.0000E+00  0.0000E+00  0.4000E+01  0.4000E+01
     -5.235  0.0000E+00  0.0000E+00  0.4000E+01  0.4000E+01
     -5.131  0.0000E+00  0.0000E+00  0.4000E+01  0.4000E+01
     -5.028  0.0000E+00  0.0000E+00  0.4000E+01  0.4000E+01
     -4.924  0.0000E+00  0.0000E+00  0.4000E+01  0.4000E+01
     -4.820  0.0000E+00  0.0000E+00  0.4000E+01  0.4000E+01
     -4.717  0.0000E+00  0.0000E+00  0.4000E+01  0.4000E+01
     -4.613  0.0000E+00  0.0000E+00  0.4000E+01  0.4000E+01
     -4.510  0.0000E+00  0.0000E+00  0.4000E+01  0.4000E+01
     -4.406  0.0000E+00  0.0000E+00  0.4000E+01  0.4000E+01
     -4.303  0.0000E+00  0.0000E+00  0.4000E+01  0.4000E+01
     -4.199  0.0000E+00  0.0000E+00  0.4000E+01  0.4000E+01
     -4.095  0.0000E+00  0.0000E+00  0.4000E+01  0.4000E+01
     -3.992  0.0000E+00  0.0000E+00  0.4000E+01  0.4000E+01
     -3.888  0.0000E+00  0.0000E+00  0.4000E+01  0.4000E+01
     -3.785  0.0000E+00  0.0000E+00  0.4000E+01  0.4000E+01
     -3.681  0.0000E+00  0.0000E+00  0.4000E+01  0.4000E+01
     -3.578  0.0000E+00  0.0000E+00  0.4000E+01  0.4000E+01
     -3.474  0.0000E+00  0.0000E+00  0.4000E+01  0.4000E+01
     -3.370  0.0000E+00  0.0000E+00  0.4000E+01  0.4000E+01
     -3.267  0.0000E+00  0.0000E+00  0.4000E+01  0.4000E+01
     -3.163  0.0000E+00  0.0000E+00  0.4000E+01  0.4000E+01
     -3.060  0.0000E+00  0.0000E+00  0.4000E+01  0.4000E+01
     -2.956  0.0000E+00  0.0000E+00  0.4000E+01  0.4000E+01
     -2.853  0.0000E+00  0.0000E+00  0.4000E+01  0.4000E+01
     -2.749  0.0000E+00  0.0000E+00  0.4000E+01  0.4000E+01
     -2.645  0.0000E+00  0.0000E+00  0.4000E+01  0.4000E+01
     -2.542  0.0000E+00  0.0000E+00  0.4000E+01  0.4000E+01
     -2.438  0.0000E+00  0.0000E+00  0.4000E+01  0.4000E+01
     -2.335  0.0000E+00  0.0000E+00  0.4000E+01  0.4000E+01
     -2.231  0.0000E+00  0.0000E+00  0.4000E+01  0.4000E+01
     -2.128  0.0000E+00  0.0000E+00  0.4000E+01  0.4000E+01
     -2.024  0.0000E+00  0.0000E+00  0.4000E+01  0.4000E+01
     -1.920  0.0000E+00  0.0000E+00  0.4000E+01  0.4000E+01
     -1.817  0.0000E+00  0.0000E+00  0.4000E+01  0.4000E+01
     -1.713  0.0000E+00  0.0000E+00  0.4000E+01  0.4000E+01
     -1.610  0.1394E-13  0.0000E+00  0.4000E+01  0.4000E+01
     -1.506  0.3807E-11  0.2680E-14  0.4000E+01  0.4000E+01
     -1.403  0.6111E-09  0.7831E-12  0.4000E+01  0.4000E+01
     -1.299  0.5793E-07  0.1466E-09  0.4000E+01  0.4000E+01
     -1.195  0.3248E-05  0.1621E-07  0.4000E+01  0.4000E+01
     -1.092  0.1079E-03  0.1059E-05  0.4000E+01  0.4000E+01
     -0.988  0.2127E-02  0.4098E-04  0.4000E+01  0.4000E+01
     -0.885  0.2494E-01  0.9406E-03  0.4003E+01  0.4000E+01
     -0.781  0.1743E+00  0.1283E-01  0.4021E+01  0.4001E+01
     -0.678  0.7268E+00  0.1043E+00  0.4096E+01  0.4012E+01
     -0.574  0.1812E+01  0.5053E+00  0.4284E+01  0.4065E+01
     -0.470  0.2704E+01  0.1464E+01  0.4564E+01  0.4216E+01
     -0.367  0.2416E+01  0.2537E+01  0.4814E+01  0.4479E+01
     -0.263  0.1292E+01  0.2633E+01  0.4948E+01  0.4752E+01
     -0.160  0.4136E+00  0.1636E+01  0.4991E+01  0.4921E+01
     -0.056  0.7908E-01  0.6082E+00  0.4999E+01  0.4984E+01
      0.047  0.9018E-02  0.1352E+00  0.5000E+01  0.4998E+01
      0.151  0.6123E-03  0.1793E-01  0.5000E+01  0.5000E+01
      0.255  0.2470E-04  0.1416E-02  0.5000E+01  0.5000E+01
      0.358  0.5910E-06  0.6651E-04  0.5000E+01  0.5000E+01
      0.462  0.8371E-08  0.1854E-05  0.5000E+01  0.5000E+01
      0.565  0.7008E-10  0.3060E-07  0.5000E+01  0.5000E+01
      0.669  0.3500E-12  0.2987E-09  0.5000E+01  0.5000E+01
      0.772  0.1287E-11  0.1722E-11  0.5000E+01  0.5000E+01
      0.876  0.2544E-09  0.7879E-13  0.5000E+01  0.5000E+01
      0.979  0.2973E-07  0.1855E-10  0.5000E+01  0.5000E+01
      1.083  0.2054E-05  0.2837E-08  0.5000E+01  0.5000E+01
      1.187  0.8406E-04  0.2564E-06  0.5000E+01  0.5000E+01
      1.290  0.2042E-02  0.1370E-04  0.5000E+01  0.5000E+01
      1.394  0.2948E-01  0.4341E-03  0.5003E+01  0.5000E+01
      1.497  0.2535E+00  0.8162E-02  0.5030E+01  0.5001E+01
      1.601  0.1301E+01  0.9128E-01  0.5164E+01  0.5010E+01
      1.704  0.3993E+01  0.6084E+00  0.5578E+01  0.5073E+01
      1.808  0.7334E+01  0.2421E+01  0.6337E+01  0.5324E+01
      1.912  0.8068E+01  0.5760E+01  0.7173E+01  0.5921E+01
      2.015  0.5316E+01  0.8202E+01  0.7724E+01  0.6770E+01
      2.119  0.2098E+01  0.6994E+01  0.7941E+01  0.7494E+01
      2.222  0.4949E+00  0.3570E+01  0.7992E+01  0.7864E+01
      2.326  0.6974E-01  0.1090E+01  0.7999E+01  0.7977E+01
      2.429  0.5858E-02  0.1988E+00  0.8000E+01  0.7998E+01
      2.533  0.2927E-03  0.2163E-01  0.8000E+01  0.8000E+01
      2.637  0.8684E-05  0.1401E-02  0.8000E+01  0.8000E+01
      2.740  0.1527E-06  0.5388E-04  0.8000E+01  0.8000E+01
      2.844  0.1589E-08  0.1229E-05  0.8000E+01  0.8000E+01
      2.947  0.9766E-11  0.1660E-07  0.8000E+01  0.8000E+01
      3.051  0.3430E-13  0.1324E-09  0.8000E+01  0.8000E+01
      3.154  0.0000E+00  0.6239E-12  0.8000E+01  0.8000E+01
      3.258  0.0000E+00  0.0000E+00  0.8000E+01  0.8000E+01
      3.362  0.0000E+00  0.0000E+00  0.8000E+01  0.8000E+01
      3.465  0.0000E+00  0.0000E+00  0.8000E+01  0.8000E+01
      3.569  0.0000E+00  0.0000E+00  0.8000E+01  0.8000E+01
      3.672  0.0000E+00  0.0000E+00  0.8000E+01  0.8000E+01
      3.776  0.0000E+00  0.0000E+00  0.8000E+01  0.8000E+01
      3.879  0.0000E+00  0.0000E+00  0.8000E+01  0.8000E+01
      3.983  0.0000E+00  0.0000E+00  0.8000E+01  0.8000E+01
