    1    1    1    2
  0.5120000E+03  0.8000000E-09  0.8000000E-09  0.8000000E-09  0.5000000E-15
   1.0000000000000000E-004
  CAR 
 O atom in a box                         
      6      1      8

  0.0000000E+00  0.0000000E+00  0.0000000E+00  0.1000000E+01
    1      -25.087811    -21.839608   1.000000   1.000000
    2      -10.083028     -7.054309   1.000000   0.333333
    3      -10.083028     -7.054309   1.000000   0.333333
    4      -10.083028     -7.054309   1.000000   0.333333
    5       -0.493230     -0.359443   0.000000   0.000000
    6        1.821263      1.982990   0.000000   0.000000
    7        1.830338      1.982990   0.000000   0.000000
    8        1.830338      1.982998   0.000000   0.000000
