       N       E                     dE             d eps       ncg     rms          rms(c)
DAV:   1     0.389725012498E+02    0.38973E+02   -0.10098E+03    32   0.259E+02
DAV:   2     0.317912429152E+01   -0.35793E+02   -0.35786E+02    64   0.438E+01
DAV:   3    -0.119085682561E+01   -0.43700E+01   -0.36686E+01    32   0.328E+01
DAV:   4    -0.126198272059E+01   -0.71126E-01   -0.69189E-01    32   0.508E+00
DAV:   5    -0.126284204942E+01   -0.85933E-03   -0.85925E-03    48   0.504E-01    0.653E+00
DAV:   6     0.164008047398E+00    0.14269E+01   -0.32208E+00    32   0.894E+00    0.151E+00
DAV:   7    -0.112587091449E+01   -0.12899E+01   -0.78042E-01    32   0.398E+00    0.391E-01
DAV:   8    -0.154118725581E+01   -0.41532E+00   -0.11227E-01    48   0.147E+00    0.260E-01
DAV:   9    -0.161426769979E+01   -0.73080E-01   -0.58116E-03    32   0.429E-01    0.117E-01
DAV:  10    -0.167221379292E+01   -0.57946E-01   -0.14493E-02    32   0.551E-01    0.612E-02
DAV:  11    -0.167201923675E+01    0.19456E-03   -0.48840E-04    32   0.131E-01    0.173E-02
DAV:  12    -0.167276881304E+01   -0.74958E-03   -0.10240E-04    32   0.467E-02    0.135E-02
DAV:  13    -0.167302579649E+01   -0.25698E-03   -0.13177E-05    32   0.203E-02    0.956E-03
DAV:  14    -0.167302926722E+01   -0.34707E-05   -0.34772E-06    32   0.116E-02
   1 F= -.16730293E+01 E0= -.15958981E+01  d E =-.154262E+00  mag=     1.9999
