 vasp.5.4.4.18Apr17-6-g9f103f2a35 (build Dec 28 2021 15:39:15) complex           
 executed on             LinuxGNU date 2021.12.31  11:00:37
 running on    4 total cores
 distrk:  each k-point on    4 cores,    1 groups
 distr:  one band on NCORES_PER_BAND=   1 cores,    4 groups


--------------------------------------------------------------------------------------------------------


 INCAR:
 POTCAR:   PAW_RPBE O 08Apr2002                   
 POTCAR:   PAW_RPBE O 08Apr2002                   
   VRHFIN =O: s2p4                                                              
   LEXCH  = PE                                                                  
   EATOM  =   432.3788 eV,   31.7789 Ry                                         
                                                                                
   TITEL  = PAW_RPBE O 08Apr2002                                                
   LULTRA =        F    use ultrasoft PP ?                                      
   IUNSCR =        0    unscreen: 0-lin 1-nonlin 2-no                           
   RPACOR =     .000    partial core radius                                     
   POMASS =   16.000; ZVAL   =    6.000    mass and valenz                      
   RCORE  =    1.520    outmost cutoff radius                                   
   RWIGS  =    1.550; RWIGS  =     .820    wigner-seitz radius (au A)           
   ENMAX  =  400.000; ENMIN  =  300.000 eV                                      
   ICORE  =        2    local potential                                         
   LCOR   =        T    correct aug charges                                     
   LPAW   =        T    paw PP                                                  
   EAUG   =  605.392                                                            
   DEXC   =     .000                                                            
   RMAX   =    2.264    core radius for proj-oper                               
   RAUG   =    1.300    factor for augmentation sphere                          
   RDEP   =    1.550    radius for radial grids                                 
   QCUT   =   -5.520; QGAM   =   11.041    optimization parameters              
                                                                                
   Description                                                                  
     l     E      TYP  RCUT    TYP  RCUT                                        
     0   .000     23  1.200                                                     
     0  -.700     23  1.200                                                     
     1   .000     23  1.520                                                     
     1   .600     23  1.520                                                     
     2   .000      7  1.500                                                     
  local pseudopotential read in
  atomic valenz-charges read in
  non local Contribution for L=           0  read in
    real space projection operators read in
  non local Contribution for L=           0  read in
    real space projection operators read in
  non local Contribution for L=           1  read in
    real space projection operators read in
  non local Contribution for L=           1  read in
    real space projection operators read in
    PAW grid and wavefunctions read in

   number of l-projection  operators is LMAX  =           4
   number of lm-projection operators is LMMAX =           8

 PAW_RPBE O 08Apr2002                   :
 energy of atom  1       EATOM= -432.3788
 kinetic energy error for atom=    0.1156 (will be added to EATOM!!)


 POSCAR: O atom in a box                         
  positions in cartesian coordinates
  No initial velocities read in
 exchange correlation table for  LEXCH =        8
   RHO(1)=    0.500       N(1)  =     2000
   RHO(2)=  100.500       N(2)  =     4000



--------------------------------------------------------------------------------------------------------


 ion  position               nearest neighbor table
   1  0.000  0.000  0.000-

  LATTYP: Found a simple cubic cell.
 ALAT       =     8.0000000000
  
  Lattice vectors:
  
 A1 = (   8.0000000000,   0.0000000000,   0.0000000000)
 A2 = (   0.0000000000,   8.0000000000,   0.0000000000)
 A3 = (   0.0000000000,   0.0000000000,   8.0000000000)


Analysis of symmetry for initial positions (statically):
=====================================================================
 Subroutine PRICEL returns:
 Original cell was already a primitive cell.
 

 Routine SETGRP: Setting up the symmetry group for a 
 simple cubic supercell.


 Subroutine GETGRP returns: Found 48 space group operations
 (whereof 48 operations were pure point group operations)
 out of a pool of 48 trial point group operations.


The static configuration has the point symmetry O_h .


Analysis of symmetry for dynamics (positions and initial velocities):
=====================================================================
 Subroutine PRICEL returns:
 Original cell was already a primitive cell.
 

 Routine SETGRP: Setting up the symmetry group for a 
 simple cubic supercell.


 Subroutine GETGRP returns: Found 48 space group operations
 (whereof 48 operations were pure point group operations)
 out of a pool of 48 trial point group operations.


The dynamic configuration has the point symmetry O_h .


Analysis of structural, dynamic, and magnetic symmetry:
=====================================================================
 Subroutine PRICEL returns:
 Original cell was already a primitive cell.
 

 Routine SETGRP: Setting up the symmetry group for a 
 simple cubic supercell.


 Subroutine GETGRP returns: Found 48 space group operations
 (whereof 48 operations were pure point group operations)
 out of a pool of 48 trial point group operations.


The magnetic configuration has the point symmetry O_h .


 Subroutine INISYM returns: Found 48 space group operations
 (whereof 48 operations are pure point group operations),
 and found     1 'primitive' translations



 KPOINTS: Gamma-point only                        
  k-points in reciprocal lattice
Space group operators:
 irot       det(A)        alpha          n_x          n_y          n_z        tau_x        tau_y        tau_z
    1     1.000000     0.000000     1.000000     0.000000     0.000000     0.000000     0.000000     0.000000
    2    -1.000000     0.000000     1.000000     0.000000     0.000000     0.000000     0.000000     0.000000
    3     1.000000   120.000000    -0.577350    -0.577350    -0.577350     0.000000     0.000000     0.000000
    4    -1.000000   120.000000    -0.577350    -0.577350    -0.577350     0.000000     0.000000     0.000000
    5     1.000000   120.000000     0.577350     0.577350     0.577350     0.000000     0.000000     0.000000
    6    -1.000000   120.000000     0.577350     0.577350     0.577350     0.000000     0.000000     0.000000
    7     1.000000    90.000000     0.000000     0.000000    -1.000000     0.000000     0.000000     0.000000
    8    -1.000000    90.000000     0.000000     0.000000    -1.000000     0.000000     0.000000     0.000000
    9     1.000000   180.000000     0.000000     0.707107     0.707107     0.000000     0.000000     0.000000
   10    -1.000000   180.000000     0.000000     0.707107     0.707107     0.000000     0.000000     0.000000
   11     1.000000    90.000000     0.000000     1.000000     0.000000     0.000000     0.000000     0.000000
   12    -1.000000    90.000000     0.000000     1.000000     0.000000     0.000000     0.000000     0.000000
   13     1.000000   180.000000     0.000000     0.000000     1.000000     0.000000     0.000000     0.000000
   14    -1.000000   180.000000     0.000000     0.000000     1.000000     0.000000     0.000000     0.000000
   15     1.000000   120.000000    -0.577350     0.577350     0.577350     0.000000     0.000000     0.000000
   16    -1.000000   120.000000    -0.577350     0.577350     0.577350     0.000000     0.000000     0.000000
   17     1.000000   120.000000    -0.577350     0.577350    -0.577350     0.000000     0.000000     0.000000
   18    -1.000000   120.000000    -0.577350     0.577350    -0.577350     0.000000     0.000000     0.000000
   19     1.000000    90.000000     0.000000     0.000000     1.000000     0.000000     0.000000     0.000000
   20    -1.000000    90.000000     0.000000     0.000000     1.000000     0.000000     0.000000     0.000000
   21     1.000000    90.000000    -1.000000     0.000000     0.000000     0.000000     0.000000     0.000000
   22    -1.000000    90.000000    -1.000000     0.000000     0.000000     0.000000     0.000000     0.000000
   23     1.000000   180.000000     0.707107     0.000000     0.707107     0.000000     0.000000     0.000000
   24    -1.000000   180.000000     0.707107     0.000000     0.707107     0.000000     0.000000     0.000000
   25     1.000000   120.000000     0.577350    -0.577350     0.577350     0.000000     0.000000     0.000000
   26    -1.000000   120.000000     0.577350    -0.577350     0.577350     0.000000     0.000000     0.000000
   27     1.000000   120.000000    -0.577350    -0.577350     0.577350     0.000000     0.000000     0.000000
   28    -1.000000   120.000000    -0.577350    -0.577350     0.577350     0.000000     0.000000     0.000000
   29     1.000000   180.000000     1.000000     0.000000     0.000000     0.000000     0.000000     0.000000
   30    -1.000000   180.000000     1.000000     0.000000     0.000000     0.000000     0.000000     0.000000
   31     1.000000    90.000000     0.000000    -1.000000     0.000000     0.000000     0.000000     0.000000
   32    -1.000000    90.000000     0.000000    -1.000000     0.000000     0.000000     0.000000     0.000000
   33     1.000000   180.000000     0.707107     0.707107     0.000000     0.000000     0.000000     0.000000
   34    -1.000000   180.000000     0.707107     0.707107     0.000000     0.000000     0.000000     0.000000
   35     1.000000    90.000000     1.000000     0.000000     0.000000     0.000000     0.000000     0.000000
   36    -1.000000    90.000000     1.000000     0.000000     0.000000     0.000000     0.000000     0.000000
   37     1.000000   120.000000     0.577350    -0.577350    -0.577350     0.000000     0.000000     0.000000
   38    -1.000000   120.000000     0.577350    -0.577350    -0.577350     0.000000     0.000000     0.000000
   39     1.000000   180.000000     0.000000     1.000000     0.000000     0.000000     0.000000     0.000000
   40    -1.000000   180.000000     0.000000     1.000000     0.000000     0.000000     0.000000     0.000000
   41     1.000000   120.000000     0.577350     0.577350    -0.577350     0.000000     0.000000     0.000000
   42    -1.000000   120.000000     0.577350     0.577350    -0.577350     0.000000     0.000000     0.000000
   43     1.000000   180.000000     0.000000    -0.707107     0.707107     0.000000     0.000000     0.000000
   44    -1.000000   180.000000     0.000000    -0.707107     0.707107     0.000000     0.000000     0.000000
   45     1.000000   180.000000     0.707107    -0.707107     0.000000     0.000000     0.000000     0.000000
   46    -1.000000   180.000000     0.707107    -0.707107     0.000000     0.000000     0.000000     0.000000
   47     1.000000   180.000000     0.707107     0.000000    -0.707107     0.000000     0.000000     0.000000
   48    -1.000000   180.000000     0.707107     0.000000    -0.707107     0.000000     0.000000     0.000000


--------------------------------------------------------------------------------------------------------




 Dimension of arrays:
   k-points           NKPTS =      1   k-points in BZ     NKDIM =      1   number of bands    NBANDS=      8
   number of dos      NEDOS =    301   number of ions     NIONS =      1
   non local maximal  LDIM  =      4   non local SUM 2l+1 LMDIM =      8
   total plane-waves  NPLWV =  64000
   max r-space proj   IRMAX =      1   max aug-charges    IRDMAX=   1821
   dimension x,y,z NGX =    40 NGY =   40 NGZ =   40
   dimension x,y,z NGXF=    80 NGYF=   80 NGZF=   80
   support grid    NGXF=    80 NGYF=   80 NGZF=   80
   ions per type =               1
   NGX,Y,Z   is equivalent  to a cutoff of   8.31,  8.31,  8.31 a.u.
   NGXF,Y,Z  is equivalent  to a cutoff of  16.62, 16.62, 16.62 a.u.

 SYSTEM =  O atom in a box                         
 POSCAR =  O atom in a box                         

 Startparameter for this run:
   NWRITE =      2    write-flag & timer
   PREC   = normal    normal or accurate (medium, high low for compatibility)
   ISTART =      0    job   : 0-new  1-cont  2-samecut
   ICHARG =      2    charge: 1-file 2-atom 10-const
   ISPIN  =      2    spin polarized calculation?
   LNONCOLLINEAR =      F non collinear calculations
   LSORBIT =      F    spin-orbit coupling
   INIWAV =      1    electr: 0-lowe 1-rand  2-diag
   LASPH  =      F    aspherical Exc in radial PAW
   METAGGA=      F    non-selfconsistent MetaGGA calc.

 Electronic Relaxation 1
   ENCUT  =  400.0 eV  29.40 Ry    5.42 a.u.  13.05 13.05 13.05*2*pi/ulx,y,z
   ENINI  =  400.0     initial cutoff
   ENAUG  =  605.4 eV  augmentation charge cutoff
   NELM   =     60;   NELMIN=  2; NELMDL= -5     # of ELM steps 
   EDIFF  = 0.1E-03   stopping-criterion for ELM
   LREAL  =      F    real-space projection
   NLSPLINE    = F    spline interpolate recip. space projectors
   LCOMPAT=      F    compatible to vasp.4.4
   GGA_COMPAT  = T    GGA compatible to vasp.4.4-vasp.4.6
   LMAXPAW     = -100 max onsite density
   LMAXMIX     =    2 max onsite mixed and CHGCAR
   VOSKOWN=      0    Vosko Wilk Nusair interpolation
   ROPT   =    0.00000
 Ionic relaxation
   EDIFFG = 0.1E-02   stopping-criterion for IOM
   NSW    =      0    number of steps for IOM
   NBLOCK =      1;   KBLOCK =      1    inner block; outer block 
   IBRION =     -1    ionic relax: 0-MD 1-quasi-New 2-CG
   NFREE  =      0    steps in history (QN), initial steepest desc. (CG)
   ISIF   =      2    stress and relaxation
   IWAVPR =     10    prediction:  0-non 1-charg 2-wave 3-comb
   ISYM   =      2    0-nonsym 1-usesym 2-fastsym
   LCORR  =      T    Harris-Foulkes like correction to forces

   POTIM  = 0.5000    time-step for ionic-motion
   TEIN   =    0.0    initial temperature
   TEBEG  =    0.0;   TEEND  =   0.0 temperature during run
   SMASS  =  -3.00    Nose mass-parameter (am)
   estimated Nose-frequenzy (Omega)   =  0.10E-29 period in steps =****** mass=  -0.146E-26a.u.
   SCALEE = 1.0000    scale energy and forces
   NPACO  =    256;   APACO  = 16.0  distance and # of slots for P.C.
   PSTRESS=    0.0 pullay stress

  Mass of Ions in am
   POMASS =  16.00
  Ionic Valenz
   ZVAL   =   6.00
  Atomic Wigner-Seitz radii
   RWIGS  =  -1.00
  virtual crystal weights 
   VCA    =   1.00
   NELECT =       6.0000    total number of electrons
   NUPDOWN=      -1.0000    fix difference up-down

 DOS related values:
   EMIN   =  10.00;   EMAX   =-10.00  energy-range for DOS
   EFERMI =   0.00
   ISMEAR =     0;   SIGMA  =   0.20  broadening in eV -4-tet -1-fermi 0-gaus

 Electronic relaxation 2 (details)
   IALGO  =     38    algorithm
   LDIAG  =      T    sub-space diagonalisation (order eigenvalues)
   LSUBROT=      F    optimize rotation matrix (better conditioning)
   TURBO    =      0    0=normal 1=particle mesh
   IRESTART =      0    0=no restart 2=restart with 2 vectors
   NREBOOT  =      0    no. of reboots
   NMIN     =      0    reboot dimension
   EREF     =   0.00    reference energy to select bands
   IMIX   =      4    mixing-type and parameters
     AMIX     =   0.40;   BMIX     =  1.00
     AMIX_MAG =   1.60;   BMIX_MAG =  1.00
     AMIN     =   0.10
     WC   =   100.;   INIMIX=   1;  MIXPRE=   1;  MAXMIX= -45

 Intra band minimization:
   WEIMIN = 0.0000     energy-eigenvalue tresh-hold
   EBREAK =  0.31E-05  absolut break condition
   DEPER  =   0.30     relativ break condition  

   TIME   =   0.40     timestep for ELM

  volume/ion in A,a.u.               =     512.00      3455.15
  Fermi-wavevector in a.u.,A,eV,Ry     =   0.371851  0.702696  1.881318  0.138273
  Thomas-Fermi vector in A             =   1.300284

 Write flags
   LWAVE        =      T    write WAVECAR
   LDOWNSAMPLE  =      F    k-point downsampling of WAVECAR
   LCHARG       =      T    write CHGCAR
   LVTOT        =      F    write LOCPOT, total local potential
   LVHAR        =      F    write LOCPOT, Hartree potential only
   LELF         =      F    write electronic localiz. function (ELF)
   LORBIT       =      0    0 simple, 1 ext, 2 COOP (PROOUT), +10 PAW based schemes


 Dipole corrections
   LMONO  =      F    monopole corrections only (constant potential shift)
   LDIPOL =      F    correct potential (dipole corrections)
   IDIPOL =      0    1-x, 2-y, 3-z, 4-all directions 
   EPSILON=  1.0000000 bulk dielectric constant

 Exchange correlation treatment:
   GGA     =    --    GGA type
   LEXCH   =     8    internal setting for exchange type
   VOSKOWN=      0    Vosko Wilk Nusair interpolation
   LHFCALC =     F    Hartree Fock is set to
   LHFONE  =     F    Hartree Fock one center treatment
   AEXX    =    0.0000 exact exchange contribution

 Linear response parameters
   LEPSILON=     F    determine dielectric tensor
   LRPA    =     F    only Hartree local field effects (RPA)
   LNABLA  =     F    use nabla operator in PAW spheres
   LVEL    =     F    velocity operator in full k-point grid
   LINTERFAST=   F  fast interpolation
   KINTER  =     0    interpolate to denser k-point grid
   CSHIFT  =0.1000    complex shift for real part using Kramers Kronig
   OMEGAMAX=  -1.0    maximum frequency
   DEG_THRESHOLD= 0.2000000E-02 threshold for treating states as degnerate
   RTIME   =   -0.100 relaxation time in fs
  (WPLASMAI=    0.000 imaginary part of plasma frequency in eV, 0.658/RTIME)
   DFIELD  = 0.0000000 0.0000000 0.0000000 field for delta impulse in time

 Orbital magnetization related:
   ORBITALMAG=     F  switch on orbital magnetization
   LCHIMAG   =     F  perturbation theory with respect to B field
   DQ        =  0.001000  dq finite difference perturbation B field
   LLRAUG    =     F  two centre corrections for induced B field



--------------------------------------------------------------------------------------------------------


 Static calculation
 charge density and potential will be updated during run
 spin polarized calculation
 Variant of blocked Davidson
 Davidson routine will perform the subspace rotation
 perform sub-space diagonalisation
    after iterative eigenvector-optimisation
 modified Broyden-mixing scheme, WC =      100.0
 initial mixing is a Kerker type mixing with AMIX =  0.4000 and BMIX =      1.0000
 Hartree-type preconditioning will be used
 using additional bands            5
 reciprocal scheme for non local part
 calculate Harris-corrections to forces   (improved forces if not selfconsistent)
 use gradient corrections 
 use of overlap-Matrix (Vanderbilt PP)
 Gauss-broadening in eV      SIGMA  =   0.20


--------------------------------------------------------------------------------------------------------


  energy-cutoff  :      400.00
  volume of cell :      512.00
      direct lattice vectors                 reciprocal lattice vectors
     8.000000000  0.000000000  0.000000000     0.125000000  0.000000000  0.000000000
     0.000000000  8.000000000  0.000000000     0.000000000  0.125000000  0.000000000
     0.000000000  0.000000000  8.000000000     0.000000000  0.000000000  0.125000000

  length of vectors
     8.000000000  8.000000000  8.000000000     0.125000000  0.125000000  0.125000000



 k-points in units of 2pi/SCALE and weight: Gamma-point only                        
   0.00000000  0.00000000  0.00000000       1.000

 k-points in reciprocal lattice and weights: Gamma-point only                        
   0.00000000  0.00000000  0.00000000       1.000

 position of ions in fractional coordinates (direct lattice) 
   0.00000000  0.00000000  0.00000000

 position of ions in cartesian coordinates  (Angst):
   0.00000000  0.00000000  0.00000000



--------------------------------------------------------------------------------------------------------


 k-point  1 :   0.0000 0.0000 0.0000  plane waves:    9315

 maximum and minimum number of plane-waves per node :      9315     9315

 maximum number of plane-waves:      9315
 maximum index in each direction: 
   IXMAX=   13   IYMAX=   13   IZMAX=   13
   IXMIN=  -13   IYMIN=  -13   IZMIN=  -13


 serial   3D FFT for wavefunctions
 parallel 3D FFT for charge:
    minimum data exchange during FFTs selected (reduces bandwidth)


 total amount of memory used by VASP MPI-rank0    50574. kBytes
=======================================================================

   base      :      30000. kBytes
   nonl-proj :        745. kBytes
   fftplans  :       4661. kBytes
   grid      :      14566. kBytes
   one-center:          6. kBytes
   wavefun   :        596. kBytes

     INWAV:  cpu time    0.0000: real time    0.0000
 Broyden mixing: mesh for mixing (old mesh)
   NGX = 27   NGY = 27   NGZ = 27
  (NGX  = 80   NGY  = 80   NGZ  = 80)
  gives a total of  19683 points

 initial charge density was supplied:
 charge density of overlapping atoms calculated
 number of electron       6.0000000 magnetization       1.0000000
 keeping initial charge density in first step


--------------------------------------------------------------------------------------------------------


 Maximum index for augmentation-charges          395 (set IRDMAX)


--------------------------------------------------------------------------------------------------------


 First call to EWALD:  gamma=   0.222
 Maximum number of real-space cells 3x 3x 3
 Maximum number of reciprocal cells 3x 3x 3

    FEWALD:  cpu time    0.0003: real time    0.0003


--------------------------------------- Iteration      1(   1)  ---------------------------------------


    POTLOK:  cpu time    0.1472: real time    0.1472
    SETDIJ:  cpu time    0.0027: real time    0.0027
     EDDAV:  cpu time    0.0373: real time    0.0373
       DOS:  cpu time    0.0001: real time    0.0001
    --------------------------------------------
      LOOP:  cpu time    0.1874: real time    0.1874

 eigenvalue-minimisations  :    32
 total energy-change (2. order) : 0.3897250E+02  (-0.1009771E+03)
 number of electron       6.0000000 magnetization       1.0000000
 augmentation part        6.0000000 magnetization       1.0000000

 Free energy of the ion-electron system (eV)
  ---------------------------------------------------
  alpha Z        PSCENC =         0.27135287
  Ewald energy   TEWEN  =       -91.92708002
  -Hartree energ DENC   =      -281.84385691
  -exchange      EXHF   =         0.00000000
  -V(xc)+E(xc)   XCENC  =        26.26291529
  PAW double counting   =       245.86419871     -247.70903455
  entropy T*S    EENTRO =        -0.10596298
  eigenvalues    EBANDS =       -44.10322719
  atomic energy  EATOM  =       432.26319604
  Solvation  Ediel_sol  =         0.00000000
  ---------------------------------------------------
  free energy    TOTEN  =        38.97250125 eV

  energy without entropy =       39.07846423  energy(sigma->0) =       39.02548274


--------------------------------------------------------------------------------------------------------




--------------------------------------- Iteration      1(   2)  ---------------------------------------


     EDDAV:  cpu time    0.0673: real time    0.0673
       DOS:  cpu time    0.0001: real time    0.0001
    --------------------------------------------
      LOOP:  cpu time    0.0674: real time    0.0674

 eigenvalue-minimisations  :    64
 total energy-change (2. order) :-0.3579338E+02  (-0.3578613E+02)
 number of electron       6.0000000 magnetization       1.0000000
 augmentation part        6.0000000 magnetization       1.0000000

 Free energy of the ion-electron system (eV)
  ---------------------------------------------------
  alpha Z        PSCENC =         0.27135287
  Ewald energy   TEWEN  =       -91.92708002
  -Hartree energ DENC   =      -281.84385691
  -exchange      EXHF   =         0.00000000
  -V(xc)+E(xc)   XCENC  =        26.26291529
  PAW double counting   =       245.86419871     -247.70903455
  entropy T*S    EENTRO =        -0.11782657
  eigenvalues    EBANDS =       -79.88474056
  atomic energy  EATOM  =       432.26319604
  Solvation  Ediel_sol  =         0.00000000
  ---------------------------------------------------
  free energy    TOTEN  =         3.17912429 eV

  energy without entropy =        3.29695086  energy(sigma->0) =        3.23803758


--------------------------------------------------------------------------------------------------------




--------------------------------------- Iteration      1(   3)  ---------------------------------------


     EDDAV:  cpu time    0.0398: real time    0.0398
       DOS:  cpu time    0.0001: real time    0.0001
    --------------------------------------------
      LOOP:  cpu time    0.0399: real time    0.0399

 eigenvalue-minimisations  :    32
 total energy-change (2. order) :-0.4369981E+01  (-0.3668618E+01)
 number of electron       6.0000000 magnetization       1.0000000
 augmentation part        6.0000000 magnetization       1.0000000

 Free energy of the ion-electron system (eV)
  ---------------------------------------------------
  alpha Z        PSCENC =         0.27135287
  Ewald energy   TEWEN  =       -91.92708002
  -Hartree energ DENC   =      -281.84385691
  -exchange      EXHF   =         0.00000000
  -V(xc)+E(xc)   XCENC  =        26.26291529
  PAW double counting   =       245.86419871     -247.70903455
  entropy T*S    EENTRO =        -0.15230091
  eigenvalues    EBANDS =       -84.22024733
  atomic energy  EATOM  =       432.26319604
  Solvation  Ediel_sol  =         0.00000000
  ---------------------------------------------------
  free energy    TOTEN  =        -1.19085683 eV

  energy without entropy =       -1.03855591  energy(sigma->0) =       -1.11470637


--------------------------------------------------------------------------------------------------------




--------------------------------------- Iteration      1(   4)  ---------------------------------------


     EDDAV:  cpu time    0.0394: real time    0.0394
       DOS:  cpu time    0.0001: real time    0.0001
    --------------------------------------------
      LOOP:  cpu time    0.0395: real time    0.0395

 eigenvalue-minimisations  :    32
 total energy-change (2. order) :-0.7112589E-01  (-0.6918872E-01)
 number of electron       6.0000000 magnetization       1.0000000
 augmentation part        6.0000000 magnetization       1.0000000

 Free energy of the ion-electron system (eV)
  ---------------------------------------------------
  alpha Z        PSCENC =         0.27135287
  Ewald energy   TEWEN  =       -91.92708002
  -Hartree energ DENC   =      -281.84385691
  -exchange      EXHF   =         0.00000000
  -V(xc)+E(xc)   XCENC  =        26.26291529
  PAW double counting   =       245.86419871     -247.70903455
  entropy T*S    EENTRO =        -0.15426224
  eigenvalues    EBANDS =       -84.28941190
  atomic energy  EATOM  =       432.26319604
  Solvation  Ediel_sol  =         0.00000000
  ---------------------------------------------------
  free energy    TOTEN  =        -1.26198272 eV

  energy without entropy =       -1.10772048  energy(sigma->0) =       -1.18485160


--------------------------------------------------------------------------------------------------------




--------------------------------------- Iteration      1(   5)  ---------------------------------------


     EDDAV:  cpu time    0.0533: real time    0.0533
       DOS:  cpu time    0.0001: real time    0.0001
    CHARGE:  cpu time    0.0212: real time    0.0212
    MIXING:  cpu time    0.0035: real time    0.0035
    --------------------------------------------
      LOOP:  cpu time    0.0781: real time    0.0781

 eigenvalue-minimisations  :    48
 total energy-change (2. order) :-0.8593288E-03  (-0.8592532E-03)
 number of electron       6.0000084 magnetization       1.6104259
 augmentation part        0.5129273 magnetization       0.0331537

 Broyden mixing:
  rms(total) = 0.65350E+00    rms(broyden)= 0.65298E+00
  rms(prec ) = 0.65312E+00
  weight for this iteration     100.00

 Free energy of the ion-electron system (eV)
  ---------------------------------------------------
  alpha Z        PSCENC =         0.27135287
  Ewald energy   TEWEN  =       -91.92708002
  -Hartree energ DENC   =      -281.84385691
  -exchange      EXHF   =         0.00000000
  -V(xc)+E(xc)   XCENC  =        26.26291529
  PAW double counting   =       245.86419871     -247.70903455
  entropy T*S    EENTRO =        -0.15426232
  eigenvalues    EBANDS =       -84.29027115
  atomic energy  EATOM  =       432.26319604
  Solvation  Ediel_sol  =         0.00000000
  ---------------------------------------------------
  free energy    TOTEN  =        -1.26284205 eV

  energy without entropy =       -1.10857973  energy(sigma->0) =       -1.18571089


--------------------------------------------------------------------------------------------------------




--------------------------------------- Iteration      1(   6)  ---------------------------------------


    POTLOK:  cpu time    0.1363: real time    0.1363
    SETDIJ:  cpu time    0.0027: real time    0.0027
     EDDAV:  cpu time    0.0376: real time    0.0376
       DOS:  cpu time    0.0001: real time    0.0001
    CHARGE:  cpu time    0.0180: real time    0.0180
    MIXING:  cpu time    0.0036: real time    0.0036
    --------------------------------------------
      LOOP:  cpu time    0.1983: real time    0.1983

 eigenvalue-minimisations  :    32
 total energy-change (2. order) : 0.1426850E+01  (-0.3220840E+00)
 number of electron       6.0000088 magnetization       1.8107236
 augmentation part        0.5367527 magnetization       0.2710246

 Broyden mixing:
  rms(total) = 0.15066E+00    rms(broyden)= 0.15030E+00
  rms(prec ) = 0.16825E+00
  weight for this iteration     100.00

 eigenvalues of (default mixing * dielectric matrix)
  average eigenvalue GAMMA=   0.8436
  0.8436

 Free energy of the ion-electron system (eV)
  ---------------------------------------------------
  alpha Z        PSCENC =         0.27135287
  Ewald energy   TEWEN  =       -91.92708002
  -Hartree energ DENC   =      -282.10376171
  -exchange      EXHF   =         0.00000000
  -V(xc)+E(xc)   XCENC  =        28.30417772
  PAW double counting   =       247.14236549     -248.85367763
  entropy T*S    EENTRO =        -0.15426232
  eigenvalues    EBANDS =       -84.77830239
  atomic energy  EATOM  =       432.26319604
  Solvation  Ediel_sol  =         0.00000000
  ---------------------------------------------------
  free energy    TOTEN  =         0.16400805 eV

  energy without entropy =        0.31827037  energy(sigma->0) =        0.24113921


--------------------------------------------------------------------------------------------------------




--------------------------------------- Iteration      1(   7)  ---------------------------------------


    POTLOK:  cpu time    0.1363: real time    0.1364
    SETDIJ:  cpu time    0.0027: real time    0.0027
     EDDAV:  cpu time    0.0374: real time    0.0374
       DOS:  cpu time    0.0001: real time    0.0001
    CHARGE:  cpu time    0.0181: real time    0.0181
    MIXING:  cpu time    0.0038: real time    0.0038
    --------------------------------------------
      LOOP:  cpu time    0.1984: real time    0.1984

 eigenvalue-minimisations  :    32
 total energy-change (2. order) :-0.1289879E+01  (-0.7804249E-01)
 number of electron       6.0000085 magnetization       1.9190951
 augmentation part        0.5221533 magnetization       0.3642475

 Broyden mixing:
  rms(total) = 0.39092E-01    rms(broyden)= 0.39082E-01
  rms(prec ) = 0.39735E-01
  weight for this iteration     100.00

 eigenvalues of (default mixing * dielectric matrix)
  average eigenvalue GAMMA=   0.9345
  0.9345  0.9345

 Free energy of the ion-electron system (eV)
  ---------------------------------------------------
  alpha Z        PSCENC =         0.27135287
  Ewald energy   TEWEN  =       -91.92708002
  -Hartree energ DENC   =      -283.75544588
  -exchange      EXHF   =         0.00000000
  -V(xc)+E(xc)   XCENC  =        27.35160590
  PAW double counting   =       251.05535297     -252.87065004
  entropy T*S    EENTRO =        -0.15426232
  eigenvalues    EBANDS =       -83.35994043
  atomic energy  EATOM  =       432.26319604
  Solvation  Ediel_sol  =         0.00000000
  ---------------------------------------------------
  free energy    TOTEN  =        -1.12587091 eV

  energy without entropy =       -0.97160859  energy(sigma->0) =       -1.04873975


--------------------------------------------------------------------------------------------------------




--------------------------------------- Iteration      1(   8)  ---------------------------------------


    POTLOK:  cpu time    0.1368: real time    0.1368
    SETDIJ:  cpu time    0.0027: real time    0.0027
     EDDAV:  cpu time    0.0509: real time    0.0509
       DOS:  cpu time    0.0001: real time    0.0001
    CHARGE:  cpu time    0.0178: real time    0.0178
    MIXING:  cpu time    0.0039: real time    0.0039
    --------------------------------------------
      LOOP:  cpu time    0.2122: real time    0.2122

 eigenvalue-minimisations  :    48
 total energy-change (2. order) :-0.4153163E+00  (-0.1122718E-01)
 number of electron       6.0000084 magnetization       1.9473969
 augmentation part        0.5170582 magnetization       0.3864122

 Broyden mixing:
  rms(total) = 0.25965E-01    rms(broyden)= 0.25945E-01
  rms(prec ) = 0.30393E-01
  weight for this iteration     100.00

 eigenvalues of (default mixing * dielectric matrix)
  average eigenvalue GAMMA=   0.9033
  1.0159  1.0159  0.6782

 Free energy of the ion-electron system (eV)
  ---------------------------------------------------
  alpha Z        PSCENC =         0.27135287
  Ewald energy   TEWEN  =       -91.92708002
  -Hartree energ DENC   =      -283.67901181
  -exchange      EXHF   =         0.00000000
  -V(xc)+E(xc)   XCENC  =        26.98024768
  PAW double counting   =       251.23059585     -253.03294792
  entropy T*S    EENTRO =        -0.15426232
  eigenvalues    EBANDS =       -83.49327763
  atomic energy  EATOM  =       432.26319604
  Solvation  Ediel_sol  =         0.00000000
  ---------------------------------------------------
  free energy    TOTEN  =        -1.54118726 eV

  energy without entropy =       -1.38692494  energy(sigma->0) =       -1.46405610


--------------------------------------------------------------------------------------------------------




--------------------------------------- Iteration      1(   9)  ---------------------------------------


    POTLOK:  cpu time    0.1380: real time    0.1380
    SETDIJ:  cpu time    0.0026: real time    0.0026
     EDDAV:  cpu time    0.0374: real time    0.0374
       DOS:  cpu time    0.0001: real time    0.0001
    CHARGE:  cpu time    0.0179: real time    0.0179
    MIXING:  cpu time    0.0040: real time    0.0040
    --------------------------------------------
      LOOP:  cpu time    0.2000: real time    0.2000

 eigenvalue-minimisations  :    32
 total energy-change (2. order) :-0.7308044E-01  (-0.5811649E-03)
 number of electron       6.0000084 magnetization       1.9985448
 augmentation part        0.5175640 magnetization       0.4371045

 Broyden mixing:
  rms(total) = 0.11652E-01    rms(broyden)= 0.11651E-01
  rms(prec ) = 0.13916E-01
  weight for this iteration     100.00

 eigenvalues of (default mixing * dielectric matrix)
  average eigenvalue GAMMA=   1.1101
  1.6964  1.0591  1.0591  0.6258

 Free energy of the ion-electron system (eV)
  ---------------------------------------------------
  alpha Z        PSCENC =         0.27135287
  Ewald energy   TEWEN  =       -91.92708002
  -Hartree energ DENC   =      -283.32771970
  -exchange      EXHF   =         0.00000000
  -V(xc)+E(xc)   XCENC  =        26.88600959
  PAW double counting   =       250.92248629     -252.73450242
  entropy T*S    EENTRO =        -0.15426232
  eigenvalues    EBANDS =       -83.81374803
  atomic energy  EATOM  =       432.26319604
  Solvation  Ediel_sol  =         0.00000000
  ---------------------------------------------------
  free energy    TOTEN  =        -1.61426770 eV

  energy without entropy =       -1.46000538  energy(sigma->0) =       -1.53713654


--------------------------------------------------------------------------------------------------------




--------------------------------------- Iteration      1(  10)  ---------------------------------------


    POTLOK:  cpu time    0.1365: real time    0.1365
    SETDIJ:  cpu time    0.0027: real time    0.0027
     EDDAV:  cpu time    0.0375: real time    0.0375
       DOS:  cpu time    0.0001: real time    0.0001
    CHARGE:  cpu time    0.0178: real time    0.0178
    MIXING:  cpu time    0.0042: real time    0.0042
    --------------------------------------------
      LOOP:  cpu time    0.1988: real time    0.1988

 eigenvalue-minimisations  :    32
 total energy-change (2. order) :-0.5794609E-01  (-0.1449312E-02)
 number of electron       6.0000085 magnetization       1.9966554
 augmentation part        0.5184164 magnetization       0.4345660

 Broyden mixing:
  rms(total) = 0.61190E-02    rms(broyden)= 0.61165E-02
  rms(prec ) = 0.72943E-02
  weight for this iteration     100.00

 eigenvalues of (default mixing * dielectric matrix)
  average eigenvalue GAMMA=   0.9641
  1.5513  1.0465  1.0465  0.5880  0.5880

 Free energy of the ion-electron system (eV)
  ---------------------------------------------------
  alpha Z        PSCENC =         0.27135287
  Ewald energy   TEWEN  =       -91.92708002
  -Hartree energ DENC   =      -282.87514872
  -exchange      EXHF   =         0.00000000
  -V(xc)+E(xc)   XCENC  =        26.80229356
  PAW double counting   =       250.60106383     -252.40050003
  entropy T*S    EENTRO =        -0.15426232
  eigenvalues    EBANDS =       -84.25312899
  atomic energy  EATOM  =       432.26319604
  Solvation  Ediel_sol  =         0.00000000
  ---------------------------------------------------
  free energy    TOTEN  =        -1.67221379 eV

  energy without entropy =       -1.51795147  energy(sigma->0) =       -1.59508263


--------------------------------------------------------------------------------------------------------




--------------------------------------- Iteration      1(  11)  ---------------------------------------


    POTLOK:  cpu time    0.1356: real time    0.1356
    SETDIJ:  cpu time    0.0027: real time    0.0027
     EDDAV:  cpu time    0.0374: real time    0.0374
       DOS:  cpu time    0.0001: real time    0.0001
    CHARGE:  cpu time    0.0180: real time    0.0180
    MIXING:  cpu time    0.0043: real time    0.0043
    --------------------------------------------
      LOOP:  cpu time    0.1980: real time    0.1981

 eigenvalue-minimisations  :    32
 total energy-change (2. order) : 0.1945562E-03  (-0.4884016E-04)
 number of electron       6.0000084 magnetization       1.9985790
 augmentation part        0.5177489 magnetization       0.4360916

 Broyden mixing:
  rms(total) = 0.17275E-02    rms(broyden)= 0.17245E-02
  rms(prec ) = 0.24360E-02
  weight for this iteration     100.00

 eigenvalues of (default mixing * dielectric matrix)
  average eigenvalue GAMMA=   0.9965
  1.5527  1.0006  1.0006  1.0115  0.7713  0.6426

 Free energy of the ion-electron system (eV)
  ---------------------------------------------------
  alpha Z        PSCENC =         0.27135287
  Ewald energy   TEWEN  =       -91.92708002
  -Hartree energ DENC   =      -282.97437847
  -exchange      EXHF   =         0.00000000
  -V(xc)+E(xc)   XCENC  =        26.81087196
  PAW double counting   =       250.82435907     -252.62729171
  entropy T*S    EENTRO =        -0.15426232
  eigenvalues    EBANDS =       -84.15878666
  atomic energy  EATOM  =       432.26319604
  Solvation  Ediel_sol  =         0.00000000
  ---------------------------------------------------
  free energy    TOTEN  =        -1.67201924 eV

  energy without entropy =       -1.51775692  energy(sigma->0) =       -1.59488808


--------------------------------------------------------------------------------------------------------




--------------------------------------- Iteration      1(  12)  ---------------------------------------


    POTLOK:  cpu time    0.1365: real time    0.1365
    SETDIJ:  cpu time    0.0027: real time    0.0027
     EDDAV:  cpu time    0.0374: real time    0.0374
       DOS:  cpu time    0.0001: real time    0.0001
    CHARGE:  cpu time    0.0179: real time    0.0179
    MIXING:  cpu time    0.0045: real time    0.0045
    --------------------------------------------
      LOOP:  cpu time    0.1990: real time    0.1990

 eigenvalue-minimisations  :    32
 total energy-change (2. order) :-0.7495763E-03  (-0.1023974E-04)
 number of electron       6.0000084 magnetization       1.9999603
 augmentation part        0.5176961 magnetization       0.4374004

 Broyden mixing:
  rms(total) = 0.13500E-02    rms(broyden)= 0.13495E-02
  rms(prec ) = 0.19117E-02
  weight for this iteration     100.00

 eigenvalues of (default mixing * dielectric matrix)
  average eigenvalue GAMMA=   1.2112
  2.6296  1.5997  1.0470  1.0470  0.7634  0.7634  0.6286

 Free energy of the ion-electron system (eV)
  ---------------------------------------------------
  alpha Z        PSCENC =         0.27135287
  Ewald energy   TEWEN  =       -91.92708002
  -Hartree energ DENC   =      -282.95541496
  -exchange      EXHF   =         0.00000000
  -V(xc)+E(xc)   XCENC  =        26.80893744
  PAW double counting   =       250.95061112     -252.75285427
  entropy T*S    EENTRO =        -0.15426232
  eigenvalues    EBANDS =       -84.17725471
  atomic energy  EATOM  =       432.26319604
  Solvation  Ediel_sol  =         0.00000000
  ---------------------------------------------------
  free energy    TOTEN  =        -1.67276881 eV

  energy without entropy =       -1.51850649  energy(sigma->0) =       -1.59563765


--------------------------------------------------------------------------------------------------------




--------------------------------------- Iteration      1(  13)  ---------------------------------------


    POTLOK:  cpu time    0.1365: real time    0.1365
    SETDIJ:  cpu time    0.0027: real time    0.0027
     EDDAV:  cpu time    0.0375: real time    0.0375
       DOS:  cpu time    0.0001: real time    0.0001
    CHARGE:  cpu time    0.0179: real time    0.0179
    MIXING:  cpu time    0.0046: real time    0.0046
    --------------------------------------------
      LOOP:  cpu time    0.1994: real time    0.1994

 eigenvalue-minimisations  :    32
 total energy-change (2. order) :-0.2569835E-03  (-0.1317724E-05)
 number of electron       6.0000084 magnetization       2.0000312
 augmentation part        0.5177399 magnetization       0.4374549

 Broyden mixing:
  rms(total) = 0.95633E-03    rms(broyden)= 0.95630E-03
  rms(prec ) = 0.11977E-02
  weight for this iteration     100.00

 eigenvalues of (default mixing * dielectric matrix)
  average eigenvalue GAMMA=   1.1515
  2.6904  1.5694  0.9599  0.9599  0.9161  0.9161  0.6239  0.5766

 Free energy of the ion-electron system (eV)
  ---------------------------------------------------
  alpha Z        PSCENC =         0.27135287
  Ewald energy   TEWEN  =       -91.92708002
  -Hartree energ DENC   =      -282.91393007
  -exchange      EXHF   =         0.00000000
  -V(xc)+E(xc)   XCENC  =        26.80577780
  PAW double counting   =       251.00056628     -252.80292310
  entropy T*S    EENTRO =        -0.15426232
  eigenvalues    EBANDS =       -84.21572328
  atomic energy  EATOM  =       432.26319604
  Solvation  Ediel_sol  =         0.00000000
  ---------------------------------------------------
  free energy    TOTEN  =        -1.67302580 eV

  energy without entropy =       -1.51876348  energy(sigma->0) =       -1.59589464


--------------------------------------------------------------------------------------------------------




--------------------------------------- Iteration      1(  14)  ---------------------------------------


    POTLOK:  cpu time    0.1373: real time    0.1373
    SETDIJ:  cpu time    0.0026: real time    0.0026
     EDDAV:  cpu time    0.0374: real time    0.0374
       DOS:  cpu time    0.0002: real time    0.0001
    --------------------------------------------
      LOOP:  cpu time    0.1774: real time    0.1774

 eigenvalue-minimisations  :    32
 total energy-change (2. order) :-0.3470724E-05  (-0.3477170E-06)
 number of electron       6.0000084 magnetization       2.0000312
 augmentation part        0.5177399 magnetization       0.4374549

 Free energy of the ion-electron system (eV)
  ---------------------------------------------------
  alpha Z        PSCENC =         0.27135287
  Ewald energy   TEWEN  =       -91.92708002
  -Hartree energ DENC   =      -282.89804893
  -exchange      EXHF   =         0.00000000
  -V(xc)+E(xc)   XCENC  =        26.80473651
  PAW double counting   =       250.98114375     -252.78325537
  entropy T*S    EENTRO =        -0.15426232
  eigenvalues    EBANDS =       -84.23081179
  atomic energy  EATOM  =       432.26319604
  Solvation  Ediel_sol  =         0.00000000
  ---------------------------------------------------
  free energy    TOTEN  =        -1.67302927 eV

  energy without entropy =       -1.51876695  energy(sigma->0) =       -1.59589811


--------------------------------------------------------------------------------------------------------




 average (electrostatic) potential at core
  the test charge radii are     0.7215
  (the norm of the test charge is              1.0000)
       1 -83.0344



 E-fermi :  -7.1152     XC(G=0):  -0.7730     alpha+bet : -0.1463


 spin component 1

 k-point     1 :       0.0000    0.0000    0.0000
  band No.  band energies     occupation 
      1     -25.0878      1.00000
      2     -10.0830      1.00000
      3     -10.0830      1.00000
      4     -10.0830      1.00000
      5      -0.4932      0.00000
      6       1.8213      0.00000
      7       1.8303      0.00000
      8       1.8303      0.00000

 spin component 2

 k-point     1 :       0.0000    0.0000    0.0000
  band No.  band energies     occupation 
      1     -21.8396      1.00000
      2      -7.0543      0.33333
      3      -7.0543      0.33333
      4      -7.0543      0.33333
      5      -0.3594      0.00000
      6       1.9830      0.00000
      7       1.9830      0.00000
      8       1.9830      0.00000


--------------------------------------------------------------------------------------------------------


 soft charge-density along one line, spin component           1
         0         1         2         3         4         5         6         7         8         9
 total charge-density along one line

 soft charge-density along one line, spin component           2
         0         1         2         3         4         5         6         7         8         9
 total charge-density along one line

 pseudopotential strength for first ion, spin component:           1
 14.648  -0.668  -0.000  -0.000  -0.000   0.000   0.000   0.000
 -0.668   0.146   0.000   0.000   0.000  -0.000  -0.000  -0.000
 -0.000   0.000 -11.458  -0.000   0.000   0.543   0.000  -0.000
 -0.000   0.000  -0.000 -11.458   0.000   0.000   0.543  -0.000
 -0.000   0.000   0.000   0.000 -11.458  -0.000  -0.000   0.543
  0.000  -0.000   0.543   0.000  -0.000   0.046  -0.000   0.000
  0.000  -0.000   0.000   0.543  -0.000  -0.000   0.046   0.000
  0.000  -0.000  -0.000  -0.000   0.543   0.000   0.000   0.046
 pseudopotential strength for first ion, spin component:           2
 13.714  -0.524  -0.000  -0.000  -0.000   0.000   0.000   0.000
 -0.524   0.123   0.000   0.000   0.000  -0.000  -0.000  -0.000
 -0.000   0.000 -10.621  -0.000   0.000   0.336   0.000  -0.000
 -0.000   0.000  -0.000 -10.621  -0.000   0.000   0.336   0.000
 -0.000   0.000   0.000  -0.000 -10.621  -0.000   0.000   0.336
  0.000  -0.000   0.336   0.000  -0.000   0.112  -0.000   0.000
  0.000  -0.000   0.000   0.336   0.000  -0.000   0.112  -0.000
  0.000  -0.000  -0.000   0.000   0.336   0.000  -0.000   0.112
 total augmentation occupancy for first ion, spin component:           1
  2.005   0.064   0.000   0.000   0.000   0.000   0.000   0.000
  0.064   0.003   0.000   0.000   0.000   0.000   0.000   0.000
  0.000   0.000   1.345   0.000   0.000   0.010   0.000   0.000
  0.000   0.000   0.000   1.345   0.000   0.000   0.010   0.000
  0.000   0.000   0.000   0.000   1.345   0.000   0.000   0.010
  0.000   0.000   0.010   0.000   0.000   0.000   0.000   0.000
  0.000   0.000   0.000   0.010   0.000   0.000   0.000   0.000
  0.000   0.000   0.000   0.000   0.010   0.000   0.000   0.000
 total augmentation occupancy for first ion, spin component:           2
  0.034  -0.036   0.000   0.000   0.000   0.000   0.000   0.000
 -0.036  -0.002   0.000   0.000   0.000   0.000   0.000   0.000
  0.000   0.000   0.711   0.000   0.000  -0.012   0.000   0.000
  0.000   0.000   0.000   0.711   0.000   0.000  -0.012   0.000
  0.000   0.000   0.000   0.000   0.711   0.000   0.000  -0.012
  0.000   0.000  -0.012   0.000   0.000  -0.000   0.000   0.000
  0.000   0.000   0.000  -0.012   0.000   0.000  -0.000   0.000
  0.000   0.000   0.000   0.000  -0.012   0.000   0.000  -0.000


------------------------ aborting loop because EDIFF is reached ----------------------------------------


    CHARGE:  cpu time    0.0182: real time    0.0182
    FORLOC:  cpu time    0.0022: real time    0.0022
    FORNL :  cpu time    0.0053: real time    0.0053
    STRESS:  cpu time    0.0368: real time    0.0368
    FORHAR:  cpu time    0.0162: real time    0.0162
    MIXING:  cpu time    0.0049: real time    0.0049
    OFIELD:  cpu time    0.0000: real time    0.0000

  FORCE on cell =-STRESS in cart. coord.  units (eV):
  Direction    XX          YY          ZZ          XY          YZ          ZX
  --------------------------------------------------------------------------------------
  Alpha Z     0.27135     0.27135     0.27135
  Ewald     -30.64236   -30.64236   -30.64236     0.00000     0.00000     0.00000
  Hartree    94.29036    94.29036    94.29036    -0.00000    -0.00000    -0.00000
  E(xc)     -28.65558   -28.65558   -28.65558    -0.00000     0.00000     0.00000
  Local    -148.00764  -148.00764  -148.00764     0.00000     0.00000     0.00000
  n-local   -20.76330   -20.76330   -20.76329    -0.00000    -0.00000    -0.00000
  augment     5.73137     5.73137     5.73137     0.00000     0.00000    -0.00000
  Kinetic   126.97560   126.97558   126.97556     0.00001     0.00001     0.00000
  Fock        0.00000     0.00000     0.00000     0.00000     0.00000     0.00000
  -------------------------------------------------------------------------------------
  Total      -0.80021    -0.80021    -0.80021    -0.00000    -0.00000    -0.00000
  in kB      -2.50407    -2.50407    -2.50407    -0.00000    -0.00000    -0.00000
  external pressure =       -2.50 kB  Pullay stress =        0.00 kB


 VOLUME and BASIS-vectors are now :
 -----------------------------------------------------------------------------
  energy-cutoff  :      400.00
  volume of cell :      512.00
      direct lattice vectors                 reciprocal lattice vectors
     8.000000000  0.000000000  0.000000000     0.125000000  0.000000000  0.000000000
     0.000000000  8.000000000  0.000000000     0.000000000  0.125000000  0.000000000
     0.000000000  0.000000000  8.000000000     0.000000000  0.000000000  0.125000000

  length of vectors
     8.000000000  8.000000000  8.000000000     0.125000000  0.125000000  0.125000000


 FORCES acting on ions
    electron-ion (+dipol)            ewald-force                    non-local-force                 convergence-correction
 -----------------------------------------------------------------------------------------------
   -.155E-14 -.119E-15 -.154E-14   -.352E-16 0.429E-16 0.388E-16   0.000E+00 0.000E+00 0.000E+00   -.140E-13 -.107E-13 -.211E-14
 -----------------------------------------------------------------------------------------------
   -.155E-14 -.119E-15 -.154E-14   -.352E-16 0.429E-16 0.388E-16   0.000E+00 0.000E+00 0.000E+00   -.140E-13 -.107E-13 -.211E-14


 POSITION                                       TOTAL-FORCE (eV/Angst)
 -----------------------------------------------------------------------------------
      0.00000      0.00000      0.00000         0.000000      0.000000      0.000000
 -----------------------------------------------------------------------------------
    total drift:                               -0.000000     -0.000000     -0.000000


--------------------------------------------------------------------------------------------------------



  FREE ENERGIE OF THE ION-ELECTRON SYSTEM (eV)
  ---------------------------------------------------
  free  energy   TOTEN  =        -1.67302927 eV

  energy  without entropy=       -1.51876695  energy(sigma->0) =       -1.59589811



--------------------------------------------------------------------------------------------------------


    POTLOK:  cpu time    0.1371: real time    0.1371


--------------------------------------------------------------------------------------------------------


 writing wavefunctions
     LOOP+:  cpu time    3.0902: real time    3.0908
    4ORBIT:  cpu time    0.0000: real time    0.0000

 total amount of memory used by VASP MPI-rank0    50574. kBytes
=======================================================================

   base      :      30000. kBytes
   nonl-proj :        745. kBytes
   fftplans  :       4661. kBytes
   grid      :      14566. kBytes
   one-center:          6. kBytes
   wavefun   :        596. kBytes

  
  
 General timing and accounting informations for this job:
 ========================================================
  
                  Total CPU time used (sec):        4.156
                            User time (sec):        3.923
                          System time (sec):        0.232
                         Elapsed time (sec):        4.375
  
                   Maximum memory used (kb):       66208.
                   Average memory used (kb):           0.
  
                          Minor page faults:        49626
                          Major page faults:           36
                 Voluntary context switches:         1230
