<?xml version="1.0" encoding="ISO-8859-1"?>
<modeling>
 <generator>
  <i name="program" type="string">vasp </i>
  <i name="version" type="string">5.4.4.18Apr17-6-g9f103f2a35  </i>
  <i name="subversion" type="string">(build Dec 28 2021 15:39:15) complex            parallel </i>
  <i name="platform" type="string">LinuxGNU </i>
  <i name="date" type="string">2021 12 31 </i>
  <i name="time" type="string">11:00:37 </i>
 </generator>
 <incar>
  <i type="string" name="SYSTEM"> O atom in a box</i>
  <i type="string" name="PREC">normal</i>
  <i type="int" name="ISPIN">     2</i>
  <i type="int" name="ISMEAR">     0</i>
  <v type="int" name="KPOINT_BSE">    -1     0     0     0</v>
 </incar>
 <structure name="primitive_cell" >
  <crystal>
   <varray name="basis" >
    <v>       8.00000000       0.00000000       0.00000000 </v>
    <v>       0.00000000       8.00000000       0.00000000 </v>
    <v>       0.00000000       0.00000000       8.00000000 </v>
   </varray>
   <i name="volume">    512.00000000 </i>
   <varray name="rec_basis" >
    <v>       0.12500000       0.00000000       0.00000000 </v>
    <v>       0.00000000       0.12500000       0.00000000 </v>
    <v>       0.00000000       0.00000000       0.12500000 </v>
   </varray>
  </crystal>
  <varray name="positions" >
   <v>       0.00000000       0.00000000       0.00000000 </v>
  </varray>
 </structure>
 <varray name="primitive_index" >
  <v type="int" >        1 </v>
 </varray>
 <kpoints>
  <varray name="kpointlist" >
   <v>       0.00000000       0.00000000       0.00000000 </v>
  </varray>
  <varray name="weights" >
   <v>       1.00000000 </v>
  </varray>
 </kpoints>
 <parameters>
  <separator name="general" >
   <i type="string" name="SYSTEM">O atom in a box</i>
   <i type="logical" name="LCOMPAT"> F  </i>
  </separator>
  <separator name="electronic" >
   <i type="string" name="PREC">normal</i>
   <i name="ENMAX">    400.00000000</i>
   <i name="ENAUG">    605.39200000</i>
   <i name="EDIFF">      0.00010000</i>
   <i type="int" name="IALGO">    38</i>
   <i type="int" name="IWAVPR">    10</i>
   <i type="int" name="NBANDS">     8</i>
   <i name="NELECT">      6.00000000</i>
   <i type="int" name="TURBO">     0</i>
   <i type="int" name="IRESTART">     0</i>
   <i type="int" name="NREBOOT">     0</i>
   <i type="int" name="NMIN">     0</i>
   <i name="EREF">      0.00000000</i>
   <separator name="electronic smearing" >
    <i type="int" name="ISMEAR">     0</i>
    <i name="SIGMA">      0.20000000</i>
    <i name="KSPACING">      0.50000000</i>
    <i type="logical" name="KGAMMA"> T  </i>
   </separator>
   <separator name="electronic projectors" >
    <i type="logical" name="LREAL"> F  </i>
    <v name="ROPT">      0.00000000</v>
    <i type="int" name="LMAXPAW">  -100</i>
    <i type="int" name="LMAXMIX">     2</i>
    <i type="logical" name="NLSPLINE"> F  </i>
   </separator>
   <separator name="electronic startup" >
    <i type="int" name="ISTART">     0</i>
    <i type="int" name="ICHARG">     2</i>
    <i type="int" name="INIWAV">     1</i>
   </separator>
   <separator name="electronic spin" >
    <i type="int" name="ISPIN">     2</i>
    <i type="logical" name="LNONCOLLINEAR"> F  </i>
    <v name="MAGMOM">      1.00000000</v>
    <i name="NUPDOWN">     -1.00000000</i>
    <i type="logical" name="LSORBIT"> F  </i>
    <v name="SAXIS">      0.00000000      0.00000000      1.00000000</v>
    <i type="logical" name="LSPIRAL"> F  </i>
    <v name="QSPIRAL">      0.00000000      0.00000000      0.00000000</v>
    <i type="logical" name="LZEROZ"> F  </i>
   </separator>
   <separator name="electronic exchange-correlation" >
    <i type="logical" name="LASPH"> F  </i>
    <i type="logical" name="LMETAGGA"> F  </i>
   </separator>
   <separator name="electronic convergence" >
    <i type="int" name="NELM">    60</i>
    <i type="int" name="NELMDL">    -5</i>
    <i type="int" name="NELMIN">     2</i>
    <i name="ENINI">    400.00000000</i>
    <separator name="electronic convergence detail" >
     <i type="logical" name="LDIAG"> T  </i>
     <i type="logical" name="LSUBROT"> F  </i>
     <i name="WEIMIN">      0.00000000</i>
     <i name="EBREAK">      0.00000313</i>
     <i name="DEPER">      0.30000000</i>
     <i type="int" name="NRMM">     4</i>
     <i name="TIME">      0.40000000</i>
    </separator>
   </separator>
   <separator name="electronic mixer" >
    <i name="AMIX">      0.40000000</i>
    <i name="BMIX">      1.00000000</i>
    <i name="AMIN">      0.10000000</i>
    <i name="AMIX_MAG">      1.60000000</i>
    <i name="BMIX_MAG">      1.00000000</i>
    <separator name="electronic mixer details" >
     <i type="int" name="IMIX">     4</i>
     <i type="logical" name="MIXFIRST"> F  </i>
     <i type="int" name="MAXMIX">   -45</i>
     <i name="WC">    100.00000000</i>
     <i type="int" name="INIMIX">     1</i>
     <i type="int" name="MIXPRE">     1</i>
     <i type="int" name="MREMOVE">     5</i>
    </separator>
   </separator>
   <separator name="electronic dipolcorrection" >
    <i type="logical" name="LDIPOL"> F  </i>
    <i type="logical" name="LMONO"> F  </i>
    <i type="int" name="IDIPOL">     0</i>
    <i name="EPSILON">      1.00000000</i>
    <v name="DIPOL">   -100.00000000   -100.00000000   -100.00000000</v>
    <i name="EFIELD">      0.00000000</i>
   </separator>
  </separator>
  <separator name="grids" >
   <i type="int" name="NGX">    40</i>
   <i type="int" name="NGY">    40</i>
   <i type="int" name="NGZ">    40</i>
   <i type="int" name="NGXF">    80</i>
   <i type="int" name="NGYF">    80</i>
   <i type="int" name="NGZF">    80</i>
   <i type="logical" name="ADDGRID"> F  </i>
  </separator>
  <separator name="ionic" >
   <i type="int" name="NSW">     0</i>
   <i type="int" name="IBRION">    -1</i>
   <i type="int" name="MDALGO">     0</i>
   <i type="int" name="ISIF">     2</i>
   <i name="PSTRESS">      0.00000000</i>
   <i name="EDIFFG">      0.00100000</i>
   <i type="int" name="NFREE">     0</i>
   <i name="POTIM">      0.50000000</i>
   <i name="SMASS">     -3.00000000</i>
   <i name="SCALEE">      1.00000000</i>
  </separator>
  <separator name="ionic md" >
   <i name="TEBEG">      0.00010000</i>
   <i name="TEEND">      0.00010000</i>
   <i type="int" name="NBLOCK">     1</i>
   <i type="int" name="KBLOCK">     1</i>
   <i type="int" name="NPACO">   256</i>
   <i name="APACO">     16.00000000</i>
  </separator>
  <separator name="symmetry" >
   <i type="int" name="ISYM">     2</i>
   <i name="SYMPREC">      0.00001000</i>
  </separator>
  <separator name="dos" >
   <i type="int" name="LORBIT">     0</i>
   <v name="RWIGS">     -1.00000000</v>
   <i type="int" name="NEDOS">   301</i>
   <i name="EMIN">     10.00000000</i>
   <i name="EMAX">    -10.00000000</i>
   <i name="EFERMI">      0.00000000</i>
  </separator>
  <separator name="writing" >
   <i type="int" name="NWRITE">     2</i>
   <i type="logical" name="LWAVE"> T  </i>
   <i type="logical" name="LDOWNSAMPLE"> F  </i>
   <i type="logical" name="LCHARG"> T  </i>
   <i type="logical" name="LPARD"> F  </i>
   <i type="logical" name="LVTOT"> F  </i>
   <i type="logical" name="LVHAR"> F  </i>
   <i type="logical" name="LELF"> F  </i>
   <i type="logical" name="LOPTICS"> F  </i>
   <v name="STM">      0.00000000      0.00000000      0.00000000      0.00000000      0.00000000      0.00000000      0.00000000</v>
  </separator>
  <separator name="performance" >
   <i type="int" name="NPAR">     4</i>
   <i type="int" name="NSIM">     4</i>
   <i type="int" name="NBLK">    -1</i>
   <i type="logical" name="LPLANE"> T  </i>
   <i type="logical" name="LSCALAPACK"> T  </i>
   <i type="logical" name="LSCAAWARE"> F  </i>
   <i type="logical" name="LSCALU"> F  </i>
   <i type="logical" name="LASYNC"> F  </i>
   <i type="logical" name="LORBITALREAL"> F  </i>
  </separator>
  <separator name="miscellaneous" >
   <i type="int" name="IDIOT">     3</i>
   <i type="int" name="ISPECIAL">     0</i>
   <i type="logical" name="LMUSIC"> F  </i>
   <v name="POMASS">     16.00000000</v>
   <v name="DARWINR">      0.00000000</v>
   <v name="DARWINV">      1.00000000</v>
   <i type="logical" name="LCORR"> T  </i>
  </separator>
  <i type="logical" name="GGA_COMPAT"> T  </i>
  <i type="logical" name="LBERRY"> F  </i>
  <i type="int" name="ICORELEVEL">     0</i>
  <i type="logical" name="LDAU"> F  </i>
  <i type="int" name="I_CONSTRAINED_M">     0</i>
  <separator name="electronic exchange-correlation" >
   <i type="string" name="GGA">--</i>
   <i type="int" name="VOSKOWN">     0</i>
   <i type="logical" name="LHFCALC"> F  </i>
   <i type="string" name="PRECFOCK"></i>
   <i type="logical" name="LSYMGRAD"> F  </i>
   <i type="logical" name="LHFONE"> F  </i>
   <i type="logical" name="LRHFCALC"> F  </i>
   <i type="logical" name="LTHOMAS"> F  </i>
   <i type="logical" name="LMODELHF"> F  </i>
   <i name="ENCUT4O">     -1.00000000</i>
   <i type="int" name="EXXOEP">     0</i>
   <i type="int" name="FOURORBIT">     0</i>
   <i name="AEXX">      0.00000000</i>
   <i name="HFALPHA">      0.00000000</i>
   <i name="MCALPHA">      0.00000000</i>
   <i name="ALDAX">      1.00000000</i>
   <i name="AGGAX">      1.00000000</i>
   <i name="ALDAC">      1.00000000</i>
   <i name="AGGAC">      1.00000000</i>
   <i type="int" name="NKREDX">     1</i>
   <i type="int" name="NKREDY">     1</i>
   <i type="int" name="NKREDZ">     1</i>
   <i type="logical" name="SHIFTRED"> F  </i>
   <i type="logical" name="ODDONLY"> F  </i>
   <i type="logical" name="EVENONLY"> F  </i>
   <i type="int" name="LMAXFOCK">     0</i>
   <i type="int" name="NMAXFOCKAE">     0</i>
   <i type="logical" name="LFOCKAEDFT"> F  </i>
   <i name="HFSCREEN">      0.00000000</i>
   <i name="HFSCREENC">      0.00000000</i>
   <i type="int" name="NBANDSGWLOW">     0</i>
  </separator>
  <separator name="vdW DFT" >
   <i type="logical" name="LUSE_VDW"> F  </i>
   <i name="Zab_VDW">     -0.84910000</i>
   <i name="PARAM1">      0.12340000</i>
   <i name="PARAM2">      1.00000000</i>
   <i name="PARAM3">      0.00000000</i>
  </separator>
  <separator name="model GW" >
   <i type="int" name="MODEL_GW">     0</i>
   <i name="MODEL_EPS0">    307.20000000</i>
   <i name="MODEL_ALPHA">      1.00000000</i>
  </separator>
  <separator name="linear response parameters" >
   <i type="logical" name="LEPSILON"> F  </i>
   <i type="logical" name="LRPA"> F  </i>
   <i type="logical" name="LNABLA"> F  </i>
   <i type="logical" name="LVEL"> F  </i>
   <i type="int" name="KINTER">     0</i>
   <i name="CSHIFT">      0.10000000</i>
   <i name="OMEGAMAX">     -1.00000000</i>
   <i name="DEG_THRESHOLD">      0.00200000</i>
   <i name="RTIME">     -0.10000000</i>
   <i name="WPLASMAI">      0.00000000</i>
   <v name="DFIELD">      0.00000000      0.00000000      0.00000000</v>
   <v name="WPLASMA">      0.00000000      0.00000000      0.00000000      0.00000000      0.00000000      0.00000000      0.00000000      0.00000000      0.00000000</v>
  </separator>
  <separator name="orbital magnetization" >
   <i type="logical" name="NUCIND"> F  </i>
   <v name="MAGPOS">      0.00000000      0.00000000      0.00000000</v>
   <i type="logical" name="LNICSALL"> T  </i>
   <i type="logical" name="ORBITALMAG"> F  </i>
   <i type="logical" name="LMAGBLOCH"> F  </i>
   <i type="logical" name="LCHIMAG"> F  </i>
   <i type="logical" name="LGAUGE"> T  </i>
   <i type="int" name="MAGATOM">     0</i>
   <v name="MAGDIPOL">      0.00000000      0.00000000      0.00000000</v>
   <v name="AVECCONST">      0.00000000      0.00000000      0.00000000</v>
  </separator>
  <separator name="response functions" >
   <i type="logical" name="LADDER"> F  </i>
   <i type="logical" name="LRPAFORCE"> F  </i>
   <i type="logical" name="LFXC"> F  </i>
   <i type="logical" name="LHARTREE"> T  </i>
   <i type="int" name="IBSE">     0</i>
   <v type="int" name="KPOINT">    -1     0     0     0</v>
   <i type="logical" name="LTCTE"> F  </i>
   <i type="logical" name="LTETE"> F  </i>
   <i type="logical" name="LTRIPLET"> F  </i>
   <i type="logical" name="LFXCEPS"> F  </i>
   <i type="logical" name="LFXHEG"> F  </i>
   <i type="int" name="NATURALO">     2</i>
   <i type="logical" name="L2ORDER"> F  </i>
   <i type="logical" name="LMP2LT"> F  </i>
   <i type="logical" name="LUSEW"> F  </i>
   <i name="ENCUTGW">     -2.00000000</i>
   <i name="ENCUTGWSOFT">     -2.00000000</i>
   <i name="ENCUTLF">     -1.00000000</i>
   <i type="int" name="LMAXMP2">    -1</i>
   <i name="SCISSOR">      0.00000000</i>
   <i type="int" name="NOMEGA">     0</i>
   <i type="int" name="NOMEGAR">     0</i>
   <i type="int" name="NBANDSGW">    -1</i>
   <i type="int" name="NBANDSO">    -1</i>
   <i type="int" name="NBANDSV">    -1</i>
   <i type="int" name="NELM">     1</i>
   <i type="int" name="NELMHF">     1</i>
   <i type="int" name="DIM">     3</i>
   <i type="int" name="ANTIRES">     0</i>
   <i name="OMEGAMAX">    -30.00000000</i>
   <i name="OMEGAMIN">    -30.00000000</i>
   <i name="OMEGATL">   -200.00000000</i>
   <i type="int" name="OMEGAGRID">   140</i>
   <i name="CSHIFT">     -0.10000000</i>
   <i type="logical" name="SELFENERGY"> F  </i>
   <i type="logical" name="LSPECTRAL"> F  </i>
   <i type="logical" name="LSPECTRALGW"> F  </i>
   <i type="logical" name="LSINGLES"> F  </i>
   <i type="logical" name="LFERMIGW"> F  </i>
   <i type="logical" name="ODDONLYGW"> F  </i>
   <i type="logical" name="EVENONLYGW"> F  </i>
   <i type="int" name="NKREDLFX">     1</i>
   <i type="int" name="NKREDLFY">     1</i>
   <i type="int" name="NKREDLFZ">     1</i>
   <i type="int" name="MAXMEM">  2800</i>
   <i type="int" name="TELESCOPE">     0</i>
   <i type="int" name="TAUPAR">     1</i>
   <i type="int" name="OMEGAPAR">    -1</i>
   <i name="LAMBDA">      1.00000000</i>
  </separator>
  <separator name="External order field" >
   <i name="OFIELD_KAPPA">      0.00000000</i>
   <v name="OFIELD_K">      0.00000000      0.00000000      0.00000000</v>
   <i name="OFIELD_Q6_NEAR">      0.00000000</i>
   <i name="OFIELD_Q6_FAR">      0.00000000</i>
   <i name="OFIELD_A">      0.00000000</i>
  </separator>
 </parameters>
 <atominfo>
  <atoms>       1 </atoms>
  <types>       1 </types>
  <array name="atoms" >
   <dimension dim="1">ion</dimension>
   <field type="string">element</field>
   <field type="int">atomtype</field>
   <set>
    <rc><c>O </c><c>   1</c></rc>
   </set>
  </array>
  <array name="atomtypes" >
   <dimension dim="1">type</dimension>
   <field type="int">atomspertype</field>
   <field type="string">element</field>
   <field>mass</field>
   <field>valence</field>
   <field type="string">pseudopotential</field>
   <set>
    <rc><c>   1</c><c>O </c><c>     16.00000000</c><c>      6.00000000</c><c> PAW_RPBE O 08Apr2002                   </c></rc>
   </set>
  </array>
 </atominfo>
 <structure name="initialpos" >
  <crystal>
   <varray name="basis" >
    <v>       8.00000000       0.00000000       0.00000000 </v>
    <v>       0.00000000       8.00000000       0.00000000 </v>
    <v>       0.00000000       0.00000000       8.00000000 </v>
   </varray>
   <i name="volume">    512.00000000 </i>
   <varray name="rec_basis" >
    <v>       0.12500000       0.00000000       0.00000000 </v>
    <v>       0.00000000       0.12500000       0.00000000 </v>
    <v>       0.00000000       0.00000000       0.12500000 </v>
   </varray>
  </crystal>
  <varray name="positions" >
   <v>       0.00000000       0.00000000       0.00000000 </v>
  </varray>
 </structure>
 <calculation>
  <scstep>
   <time name="dav">    0.04    0.04</time>
   <time name="total">    0.19    0.19</time>
   <energy>
    <i name="alphaZ">      0.27135287 </i>
    <i name="ewald">    -91.92708002 </i>
    <i name="hartreedc">   -281.84385691 </i>
    <i name="XCdc">     26.26291529 </i>
    <i name="pawpsdc">    245.86419871 </i>
    <i name="pawaedc">   -247.70903455 </i>
    <i name="eentropy">     -0.10596298 </i>
    <i name="bandstr">    -44.10322719 </i>
    <i name="atom">    432.26319604 </i>
    <i name="e_fr_energy">     38.97250125 </i>
    <i name="e_wo_entrp">     39.07846423 </i>
    <i name="e_0_energy">     39.02548274 </i>
   </energy>
  </scstep>
  <scstep>
   <time name="dav">    0.07    0.07</time>
   <time name="total">    0.07    0.07</time>
   <energy>
    <i name="e_fr_energy">      3.17912429 </i>
    <i name="e_wo_entrp">      3.29695086 </i>
    <i name="e_0_energy">      3.23803758 </i>
   </energy>
  </scstep>
  <scstep>
   <time name="dav">    0.04    0.04</time>
   <time name="total">    0.04    0.04</time>
   <energy>
    <i name="e_fr_energy">     -1.19085683 </i>
    <i name="e_wo_entrp">     -1.03855591 </i>
    <i name="e_0_energy">     -1.11470637 </i>
   </energy>
  </scstep>
  <scstep>
   <time name="dav">    0.04    0.04</time>
   <time name="total">    0.04    0.04</time>
   <energy>
    <i name="e_fr_energy">     -1.26198272 </i>
    <i name="e_wo_entrp">     -1.10772048 </i>
    <i name="e_0_energy">     -1.18485160 </i>
   </energy>
  </scstep>
  <scstep>
   <time name="dav">    0.05    0.05</time>
   <time name="total">    0.08    0.08</time>
   <energy>
    <i name="e_fr_energy">     -1.26284205 </i>
    <i name="e_wo_entrp">     -1.10857973 </i>
    <i name="e_0_energy">     -1.18571089 </i>
   </energy>
  </scstep>
  <scstep>
   <time name="dav">    0.04    0.04</time>
   <time name="total">    0.20    0.20</time>
   <energy>
    <i name="e_fr_energy">      0.16400805 </i>
    <i name="e_wo_entrp">      0.31827037 </i>
    <i name="e_0_energy">      0.24113921 </i>
   </energy>
  </scstep>
  <scstep>
   <time name="dav">    0.04    0.04</time>
   <time name="total">    0.20    0.20</time>
   <energy>
    <i name="e_fr_energy">     -1.12587091 </i>
    <i name="e_wo_entrp">     -0.97160859 </i>
    <i name="e_0_energy">     -1.04873975 </i>
   </energy>
  </scstep>
  <scstep>
   <time name="dav">    0.05    0.05</time>
   <time name="total">    0.21    0.21</time>
   <energy>
    <i name="e_fr_energy">     -1.54118726 </i>
    <i name="e_wo_entrp">     -1.38692494 </i>
    <i name="e_0_energy">     -1.46405610 </i>
   </energy>
  </scstep>
  <scstep>
   <time name="dav">    0.04    0.04</time>
   <time name="total">    0.20    0.20</time>
   <energy>
    <i name="e_fr_energy">     -1.61426770 </i>
    <i name="e_wo_entrp">     -1.46000538 </i>
    <i name="e_0_energy">     -1.53713654 </i>
   </energy>
  </scstep>
  <scstep>
   <time name="dav">    0.04    0.04</time>
   <time name="total">    0.20    0.20</time>
   <energy>
    <i name="e_fr_energy">     -1.67221379 </i>
    <i name="e_wo_entrp">     -1.51795147 </i>
    <i name="e_0_energy">     -1.59508263 </i>
   </energy>
  </scstep>
  <scstep>
   <time name="dav">    0.04    0.04</time>
   <time name="total">    0.20    0.20</time>
   <energy>
    <i name="e_fr_energy">     -1.67201924 </i>
    <i name="e_wo_entrp">     -1.51775692 </i>
    <i name="e_0_energy">     -1.59488808 </i>
   </energy>
  </scstep>
  <scstep>
   <time name="dav">    0.04    0.04</time>
   <time name="total">    0.20    0.20</time>
   <energy>
    <i name="e_fr_energy">     -1.67276881 </i>
    <i name="e_wo_entrp">     -1.51850649 </i>
    <i name="e_0_energy">     -1.59563765 </i>
   </energy>
  </scstep>
  <scstep>
   <time name="dav">    0.04    0.04</time>
   <time name="total">    0.20    0.20</time>
   <energy>
    <i name="e_fr_energy">     -1.67302580 </i>
    <i name="e_wo_entrp">     -1.51876348 </i>
    <i name="e_0_energy">     -1.59589464 </i>
   </energy>
  </scstep>
  <scstep>
   <time name="dav">    0.04    0.04</time>
   <time name="total">    0.18    0.18</time>
   <energy>
    <i name="alphaZ">      0.27135287 </i>
    <i name="ewald">    -91.92708002 </i>
    <i name="hartreedc">   -282.89804893 </i>
    <i name="XCdc">     26.80473651 </i>
    <i name="pawpsdc">    250.98114375 </i>
    <i name="pawaedc">   -252.78325537 </i>
    <i name="eentropy">     -0.15426232 </i>
    <i name="bandstr">    -84.23081179 </i>
    <i name="atom">    432.26319604 </i>
    <i name="e_fr_energy">     -1.67302927 </i>
    <i name="e_wo_entrp">     -1.51876695 </i>
    <i name="e_0_energy">     -1.59589811 </i>
   </energy>
  </scstep>
  <structure>
   <crystal>
    <varray name="basis" >
     <v>       8.00000000       0.00000000       0.00000000 </v>
     <v>       0.00000000       8.00000000       0.00000000 </v>
     <v>       0.00000000       0.00000000       8.00000000 </v>
    </varray>
    <i name="volume">    512.00000000 </i>
    <varray name="rec_basis" >
     <v>       0.12500000       0.00000000       0.00000000 </v>
     <v>       0.00000000       0.12500000       0.00000000 </v>
     <v>       0.00000000       0.00000000       0.12500000 </v>
    </varray>
   </crystal>
   <varray name="positions" >
    <v>       0.00000000       0.00000000       0.00000000 </v>
   </varray>
  </structure>
  <varray name="forces" >
   <v>       0.00000000       0.00000000       0.00000000 </v>
  </varray>
  <varray name="stress" >
   <v>      -2.50406582       0.00000000      -0.00000000 </v>
   <v>      -0.00000000      -2.50406582       0.00000000 </v>
   <v>      -0.00000000      -0.00000000      -2.50406582 </v>
  </varray>
  <energy>
   <i name="e_fr_energy">     -1.67302927 </i>
   <i name="e_wo_entrp">     -1.59589811 </i>
   <i name="e_0_energy">     -0.15426232 </i>
  </energy>
  <time name="totalsc">    3.09    3.09</time>
  <eigenvalues>
   <array>
    <dimension dim="1">band</dimension>
    <dimension dim="2">kpoint</dimension>
    <dimension dim="3">spin</dimension>
    <field>eigene</field>
    <field>occ</field>
    <set>
     <set comment="spin 1">
      <set comment="kpoint 1">
       <r>  -25.0878    1.0000 </r>
       <r>  -10.0830    1.0000 </r>
       <r>  -10.0830    1.0000 </r>
       <r>  -10.0830    1.0000 </r>
       <r>   -0.4932    0.0000 </r>
       <r>    1.8213    0.0000 </r>
       <r>    1.8303    0.0000 </r>
       <r>    1.8303    0.0000 </r>
      </set>
     </set>
     <set comment="spin 2">
      <set comment="kpoint 1">
       <r>  -21.8396    1.0000 </r>
       <r>   -7.0543    0.3333 </r>
       <r>   -7.0543    0.3333 </r>
       <r>   -7.0543    0.3333 </r>
       <r>   -0.3594    0.0000 </r>
       <r>    1.9830    0.0000 </r>
       <r>    1.9830    0.0000 </r>
       <r>    1.9830    0.0000 </r>
      </set>
     </set>
    </set>
   </array>
  </eigenvalues>
  <separator name="orbital magnetization" >
   <v name="MAGDIPOLOUT">      0.00000000      0.00000000      0.00000000</v>
  </separator>
  <dos>
   <i name="efermi">     -7.11522350 </i>
   <total>
    <array>
     <dimension dim="1">gridpoints</dimension>
     <dimension dim="2">spin</dimension>
     <field>energy</field>
     <field>total</field>
     <field>integrated</field>
     <set>
      <set comment="spin 1">
       <r>   -27.0878     0.0000     0.0000 </r>
       <r>   -26.9842     0.0000     0.0000 </r>
       <r>   -26.8807     0.0000     0.0000 </r>
       <r>   -26.7771     0.0000     0.0000 </r>
       <r>   -26.6735     0.0000     0.0000 </r>
       <r>   -26.5700     0.0000     0.0000 </r>
       <r>   -26.4664     0.0000     0.0000 </r>
       <r>   -26.3628     0.0000     0.0000 </r>
       <r>   -26.2593     0.0000     0.0000 </r>
       <r>   -26.1557     0.0000     0.0000 </r>
       <r>   -26.0521     0.0000     0.0000 </r>
       <r>   -25.9485     0.0000     0.0000 </r>
       <r>   -25.8450     0.0000     0.0000 </r>
       <r>   -25.7414     0.0000     0.0000 </r>
       <r>   -25.6378     0.0005     0.0001 </r>
       <r>   -25.5343     0.0072     0.0008 </r>
       <r>   -25.4307     0.0663     0.0077 </r>
       <r>   -25.3271     0.3634     0.0453 </r>
       <r>   -25.2236     1.1900     0.1686 </r>
       <r>   -25.1200     2.3312     0.4100 </r>
       <r>   -25.0164     2.7339     0.6931 </r>
       <r>   -24.9129     1.9198     0.8920 </r>
       <r>   -24.8093     0.8069     0.9756 </r>
       <r>   -24.7057     0.2028     0.9966 </r>
       <r>   -24.6021     0.0304     0.9997 </r>
       <r>   -24.4986     0.0027     1.0000 </r>
       <r>   -24.3950     0.0001     1.0000 </r>
       <r>   -24.2914     0.0000     1.0000 </r>
       <r>   -24.1879     0.0000     1.0000 </r>
       <r>   -24.0843     0.0000     1.0000 </r>
       <r>   -23.9807     0.0000     1.0000 </r>
       <r>   -23.8772     0.0000     1.0000 </r>
       <r>   -23.7736     0.0000     1.0000 </r>
       <r>   -23.6700     0.0000     1.0000 </r>
       <r>   -23.5665     0.0000     1.0000 </r>
       <r>   -23.4629     0.0000     1.0000 </r>
       <r>   -23.3593     0.0000     1.0000 </r>
       <r>   -23.2557     0.0000     1.0000 </r>
       <r>   -23.1522     0.0000     1.0000 </r>
       <r>   -23.0486     0.0000     1.0000 </r>
       <r>   -22.9450     0.0000     1.0000 </r>
       <r>   -22.8415     0.0000     1.0000 </r>
       <r>   -22.7379     0.0000     1.0000 </r>
       <r>   -22.6343     0.0000     1.0000 </r>
       <r>   -22.5308     0.0000     1.0000 </r>
       <r>   -22.4272     0.0000     1.0000 </r>
       <r>   -22.3236     0.0000     1.0000 </r>
       <r>   -22.2201     0.0000     1.0000 </r>
       <r>   -22.1165     0.0000     1.0000 </r>
       <r>   -22.0129     0.0000     1.0000 </r>
       <r>   -21.9093     0.0000     1.0000 </r>
       <r>   -21.8058     0.0000     1.0000 </r>
       <r>   -21.7022     0.0000     1.0000 </r>
       <r>   -21.5986     0.0000     1.0000 </r>
       <r>   -21.4951     0.0000     1.0000 </r>
       <r>   -21.3915     0.0000     1.0000 </r>
       <r>   -21.2879     0.0000     1.0000 </r>
       <r>   -21.1844     0.0000     1.0000 </r>
       <r>   -21.0808     0.0000     1.0000 </r>
       <r>   -20.9772     0.0000     1.0000 </r>
       <r>   -20.8736     0.0000     1.0000 </r>
       <r>   -20.7701     0.0000     1.0000 </r>
       <r>   -20.6665     0.0000     1.0000 </r>
       <r>   -20.5629     0.0000     1.0000 </r>
       <r>   -20.4594     0.0000     1.0000 </r>
       <r>   -20.3558     0.0000     1.0000 </r>
       <r>   -20.2522     0.0000     1.0000 </r>
       <r>   -20.1487     0.0000     1.0000 </r>
       <r>   -20.0451     0.0000     1.0000 </r>
       <r>   -19.9415     0.0000     1.0000 </r>
       <r>   -19.8380     0.0000     1.0000 </r>
       <r>   -19.7344     0.0000     1.0000 </r>
       <r>   -19.6308     0.0000     1.0000 </r>
       <r>   -19.5272     0.0000     1.0000 </r>
       <r>   -19.4237     0.0000     1.0000 </r>
       <r>   -19.3201     0.0000     1.0000 </r>
       <r>   -19.2165     0.0000     1.0000 </r>
       <r>   -19.1130     0.0000     1.0000 </r>
       <r>   -19.0094     0.0000     1.0000 </r>
       <r>   -18.9058     0.0000     1.0000 </r>
       <r>   -18.8023     0.0000     1.0000 </r>
       <r>   -18.6987     0.0000     1.0000 </r>
       <r>   -18.5951     0.0000     1.0000 </r>
       <r>   -18.4916     0.0000     1.0000 </r>
       <r>   -18.3880     0.0000     1.0000 </r>
       <r>   -18.2844     0.0000     1.0000 </r>
       <r>   -18.1808     0.0000     1.0000 </r>
       <r>   -18.0773     0.0000     1.0000 </r>
       <r>   -17.9737     0.0000     1.0000 </r>
       <r>   -17.8701     0.0000     1.0000 </r>
       <r>   -17.7666     0.0000     1.0000 </r>
       <r>   -17.6630     0.0000     1.0000 </r>
       <r>   -17.5594     0.0000     1.0000 </r>
       <r>   -17.4559     0.0000     1.0000 </r>
       <r>   -17.3523     0.0000     1.0000 </r>
       <r>   -17.2487     0.0000     1.0000 </r>
       <r>   -17.1452     0.0000     1.0000 </r>
       <r>   -17.0416     0.0000     1.0000 </r>
       <r>   -16.9380     0.0000     1.0000 </r>
       <r>   -16.8344     0.0000     1.0000 </r>
       <r>   -16.7309     0.0000     1.0000 </r>
       <r>   -16.6273     0.0000     1.0000 </r>
       <r>   -16.5237     0.0000     1.0000 </r>
       <r>   -16.4202     0.0000     1.0000 </r>
       <r>   -16.3166     0.0000     1.0000 </r>
       <r>   -16.2130     0.0000     1.0000 </r>
       <r>   -16.1095     0.0000     1.0000 </r>
       <r>   -16.0059     0.0000     1.0000 </r>
       <r>   -15.9023     0.0000     1.0000 </r>
       <r>   -15.7988     0.0000     1.0000 </r>
       <r>   -15.6952     0.0000     1.0000 </r>
       <r>   -15.5916     0.0000     1.0000 </r>
       <r>   -15.4880     0.0000     1.0000 </r>
       <r>   -15.3845     0.0000     1.0000 </r>
       <r>   -15.2809     0.0000     1.0000 </r>
       <r>   -15.1773     0.0000     1.0000 </r>
       <r>   -15.0738     0.0000     1.0000 </r>
       <r>   -14.9702     0.0000     1.0000 </r>
       <r>   -14.8666     0.0000     1.0000 </r>
       <r>   -14.7631     0.0000     1.0000 </r>
       <r>   -14.6595     0.0000     1.0000 </r>
       <r>   -14.5559     0.0000     1.0000 </r>
       <r>   -14.4523     0.0000     1.0000 </r>
       <r>   -14.3488     0.0000     1.0000 </r>
       <r>   -14.2452     0.0000     1.0000 </r>
       <r>   -14.1416     0.0000     1.0000 </r>
       <r>   -14.0381     0.0000     1.0000 </r>
       <r>   -13.9345     0.0000     1.0000 </r>
       <r>   -13.8309     0.0000     1.0000 </r>
       <r>   -13.7274     0.0000     1.0000 </r>
       <r>   -13.6238     0.0000     1.0000 </r>
       <r>   -13.5202     0.0000     1.0000 </r>
       <r>   -13.4167     0.0000     1.0000 </r>
       <r>   -13.3131     0.0000     1.0000 </r>
       <r>   -13.2095     0.0000     1.0000 </r>
       <r>   -13.1059     0.0000     1.0000 </r>
       <r>   -13.0024     0.0000     1.0000 </r>
       <r>   -12.8988     0.0000     1.0000 </r>
       <r>   -12.7952     0.0000     1.0000 </r>
       <r>   -12.6917     0.0000     1.0000 </r>
       <r>   -12.5881     0.0000     1.0000 </r>
       <r>   -12.4845     0.0000     1.0000 </r>
       <r>   -12.3810     0.0000     1.0000 </r>
       <r>   -12.2774     0.0000     1.0000 </r>
       <r>   -12.1738     0.0000     1.0000 </r>
       <r>   -12.0703     0.0000     1.0000 </r>
       <r>   -11.9667     0.0000     1.0000 </r>
       <r>   -11.8631     0.0000     1.0000 </r>
       <r>   -11.7595     0.0000     1.0000 </r>
       <r>   -11.6560     0.0000     1.0000 </r>
       <r>   -11.5524     0.0000     1.0000 </r>
       <r>   -11.4488     0.0000     1.0000 </r>
       <r>   -11.3453     0.0000     1.0000 </r>
       <r>   -11.2417     0.0000     1.0000 </r>
       <r>   -11.1381     0.0000     1.0000 </r>
       <r>   -11.0346     0.0000     1.0000 </r>
       <r>   -10.9310     0.0000     1.0000 </r>
       <r>   -10.8274     0.0000     1.0000 </r>
       <r>   -10.7239     0.0001     1.0000 </r>
       <r>   -10.6203     0.0020     1.0002 </r>
       <r>   -10.5167     0.0293     1.0032 </r>
       <r>   -10.4131     0.2522     1.0294 </r>
       <r>   -10.3096     1.2975     1.1638 </r>
       <r>   -10.2060     3.9880     1.5768 </r>
       <r>   -10.1024     7.3330     2.3363 </r>
       <r>    -9.9989     8.0726     3.1723 </r>
       <r>    -9.8953     5.3212     3.7235 </r>
       <r>    -9.7917     2.0992     3.9409 </r>
       <r>    -9.6882     0.4951     3.9921 </r>
       <r>    -9.5846     0.0697     3.9994 </r>
       <r>    -9.4810     0.0058     4.0000 </r>
       <r>    -9.3775     0.0003     4.0000 </r>
       <r>    -9.2739     0.0000     4.0000 </r>
       <r>    -9.1703     0.0000     4.0000 </r>
       <r>    -9.0667     0.0000     4.0000 </r>
       <r>    -8.9632     0.0000     4.0000 </r>
       <r>    -8.8596     0.0000     4.0000 </r>
       <r>    -8.7560     0.0000     4.0000 </r>
       <r>    -8.6525     0.0000     4.0000 </r>
       <r>    -8.5489     0.0000     4.0000 </r>
       <r>    -8.4453     0.0000     4.0000 </r>
       <r>    -8.3418     0.0000     4.0000 </r>
       <r>    -8.2382     0.0000     4.0000 </r>
       <r>    -8.1346     0.0000     4.0000 </r>
       <r>    -8.0310     0.0000     4.0000 </r>
       <r>    -7.9275     0.0000     4.0000 </r>
       <r>    -7.8239     0.0000     4.0000 </r>
       <r>    -7.7203     0.0000     4.0000 </r>
       <r>    -7.6168     0.0000     4.0000 </r>
       <r>    -7.5132     0.0000     4.0000 </r>
       <r>    -7.4096     0.0000     4.0000 </r>
       <r>    -7.3061     0.0000     4.0000 </r>
       <r>    -7.2025     0.0000     4.0000 </r>
       <r>    -7.0989     0.0000     4.0000 </r>
       <r>    -6.9954     0.0000     4.0000 </r>
       <r>    -6.8918     0.0000     4.0000 </r>
       <r>    -6.7882     0.0000     4.0000 </r>
       <r>    -6.6846     0.0000     4.0000 </r>
       <r>    -6.5811     0.0000     4.0000 </r>
       <r>    -6.4775     0.0000     4.0000 </r>
       <r>    -6.3739     0.0000     4.0000 </r>
       <r>    -6.2704     0.0000     4.0000 </r>
       <r>    -6.1668     0.0000     4.0000 </r>
       <r>    -6.0632     0.0000     4.0000 </r>
       <r>    -5.9597     0.0000     4.0000 </r>
       <r>    -5.8561     0.0000     4.0000 </r>
       <r>    -5.7525     0.0000     4.0000 </r>
       <r>    -5.6490     0.0000     4.0000 </r>
       <r>    -5.5454     0.0000     4.0000 </r>
       <r>    -5.4418     0.0000     4.0000 </r>
       <r>    -5.3382     0.0000     4.0000 </r>
       <r>    -5.2347     0.0000     4.0000 </r>
       <r>    -5.1311     0.0000     4.0000 </r>
       <r>    -5.0275     0.0000     4.0000 </r>
       <r>    -4.9240     0.0000     4.0000 </r>
       <r>    -4.8204     0.0000     4.0000 </r>
       <r>    -4.7168     0.0000     4.0000 </r>
       <r>    -4.6133     0.0000     4.0000 </r>
       <r>    -4.5097     0.0000     4.0000 </r>
       <r>    -4.4061     0.0000     4.0000 </r>
       <r>    -4.3026     0.0000     4.0000 </r>
       <r>    -4.1990     0.0000     4.0000 </r>
       <r>    -4.0954     0.0000     4.0000 </r>
       <r>    -3.9918     0.0000     4.0000 </r>
       <r>    -3.8883     0.0000     4.0000 </r>
       <r>    -3.7847     0.0000     4.0000 </r>
       <r>    -3.6811     0.0000     4.0000 </r>
       <r>    -3.5776     0.0000     4.0000 </r>
       <r>    -3.4740     0.0000     4.0000 </r>
       <r>    -3.3704     0.0000     4.0000 </r>
       <r>    -3.2669     0.0000     4.0000 </r>
       <r>    -3.1633     0.0000     4.0000 </r>
       <r>    -3.0597     0.0000     4.0000 </r>
       <r>    -2.9561     0.0000     4.0000 </r>
       <r>    -2.8526     0.0000     4.0000 </r>
       <r>    -2.7490     0.0000     4.0000 </r>
       <r>    -2.6454     0.0000     4.0000 </r>
       <r>    -2.5419     0.0000     4.0000 </r>
       <r>    -2.4383     0.0000     4.0000 </r>
       <r>    -2.3347     0.0000     4.0000 </r>
       <r>    -2.2312     0.0000     4.0000 </r>
       <r>    -2.1276     0.0000     4.0000 </r>
       <r>    -2.0240     0.0000     4.0000 </r>
       <r>    -1.9205     0.0000     4.0000 </r>
       <r>    -1.8169     0.0000     4.0000 </r>
       <r>    -1.7133     0.0000     4.0000 </r>
       <r>    -1.6097     0.0000     4.0000 </r>
       <r>    -1.5062     0.0000     4.0000 </r>
       <r>    -1.4026     0.0000     4.0000 </r>
       <r>    -1.2990     0.0000     4.0000 </r>
       <r>    -1.1955     0.0000     4.0000 </r>
       <r>    -1.0919     0.0001     4.0000 </r>
       <r>    -0.9883     0.0021     4.0002 </r>
       <r>    -0.8848     0.0249     4.0028 </r>
       <r>    -0.7812     0.1743     4.0209 </r>
       <r>    -0.6776     0.7268     4.0961 </r>
       <r>    -0.5741     1.8122     4.2838 </r>
       <r>    -0.4705     2.7041     4.5639 </r>
       <r>    -0.3669     2.4161     4.8141 </r>
       <r>    -0.2633     1.2924     4.9480 </r>
       <r>    -0.1598     0.4136     4.9908 </r>
       <r>    -0.0562     0.0791     4.9990 </r>
       <r>     0.0474     0.0090     4.9999 </r>
       <r>     0.1509     0.0006     5.0000 </r>
       <r>     0.2545     0.0000     5.0000 </r>
       <r>     0.3581     0.0000     5.0000 </r>
       <r>     0.4616     0.0000     5.0000 </r>
       <r>     0.5652     0.0000     5.0000 </r>
       <r>     0.6688     0.0000     5.0000 </r>
       <r>     0.7723     0.0000     5.0000 </r>
       <r>     0.8759     0.0000     5.0000 </r>
       <r>     0.9795     0.0000     5.0000 </r>
       <r>     1.0831     0.0000     5.0000 </r>
       <r>     1.1866     0.0001     5.0000 </r>
       <r>     1.2902     0.0020     5.0002 </r>
       <r>     1.3938     0.0295     5.0033 </r>
       <r>     1.4973     0.2535     5.0295 </r>
       <r>     1.6009     1.3014     5.1643 </r>
       <r>     1.7045     3.9933     5.5779 </r>
       <r>     1.8080     7.3339     6.3375 </r>
       <r>     1.9116     8.0676     7.1730 </r>
       <r>     2.0152     5.3163     7.7236 </r>
       <r>     2.1187     2.0975     7.9409 </r>
       <r>     2.2223     0.4949     7.9921 </r>
       <r>     2.3259     0.0697     7.9994 </r>
       <r>     2.4295     0.0059     8.0000 </r>
       <r>     2.5330     0.0003     8.0000 </r>
       <r>     2.6366     0.0000     8.0000 </r>
       <r>     2.7402     0.0000     8.0000 </r>
       <r>     2.8437     0.0000     8.0000 </r>
       <r>     2.9473     0.0000     8.0000 </r>
       <r>     3.0509     0.0000     8.0000 </r>
       <r>     3.1544     0.0000     8.0000 </r>
       <r>     3.2580     0.0000     8.0000 </r>
       <r>     3.3616     0.0000     8.0000 </r>
       <r>     3.4652     0.0000     8.0000 </r>
       <r>     3.5687     0.0000     8.0000 </r>
       <r>     3.6723     0.0000     8.0000 </r>
       <r>     3.7759     0.0000     8.0000 </r>
       <r>     3.8794     0.0000     8.0000 </r>
       <r>     3.9830     0.0000     8.0000 </r>
      </set>
      <set comment="spin 2">
       <r>   -27.0878     0.0000     0.0000 </r>
       <r>   -26.9842     0.0000     0.0000 </r>
       <r>   -26.8807     0.0000     0.0000 </r>
       <r>   -26.7771     0.0000     0.0000 </r>
       <r>   -26.6735     0.0000     0.0000 </r>
       <r>   -26.5700     0.0000     0.0000 </r>
       <r>   -26.4664     0.0000     0.0000 </r>
       <r>   -26.3628     0.0000     0.0000 </r>
       <r>   -26.2593     0.0000     0.0000 </r>
       <r>   -26.1557     0.0000     0.0000 </r>
       <r>   -26.0521     0.0000     0.0000 </r>
       <r>   -25.9485     0.0000     0.0000 </r>
       <r>   -25.8450     0.0000     0.0000 </r>
       <r>   -25.7414     0.0000     0.0000 </r>
       <r>   -25.6378     0.0000     0.0000 </r>
       <r>   -25.5343     0.0000     0.0000 </r>
       <r>   -25.4307     0.0000     0.0000 </r>
       <r>   -25.3271     0.0000     0.0000 </r>
       <r>   -25.2236     0.0000     0.0000 </r>
       <r>   -25.1200     0.0000     0.0000 </r>
       <r>   -25.0164     0.0000     0.0000 </r>
       <r>   -24.9129     0.0000     0.0000 </r>
       <r>   -24.8093     0.0000     0.0000 </r>
       <r>   -24.7057     0.0000     0.0000 </r>
       <r>   -24.6021     0.0000     0.0000 </r>
       <r>   -24.4986     0.0000     0.0000 </r>
       <r>   -24.3950     0.0000     0.0000 </r>
       <r>   -24.2914     0.0000     0.0000 </r>
       <r>   -24.1879     0.0000     0.0000 </r>
       <r>   -24.0843     0.0000     0.0000 </r>
       <r>   -23.9807     0.0000     0.0000 </r>
       <r>   -23.8772     0.0000     0.0000 </r>
       <r>   -23.7736     0.0000     0.0000 </r>
       <r>   -23.6700     0.0000     0.0000 </r>
       <r>   -23.5665     0.0000     0.0000 </r>
       <r>   -23.4629     0.0000     0.0000 </r>
       <r>   -23.3593     0.0000     0.0000 </r>
       <r>   -23.2557     0.0000     0.0000 </r>
       <r>   -23.1522     0.0000     0.0000 </r>
       <r>   -23.0486     0.0000     0.0000 </r>
       <r>   -22.9450     0.0000     0.0000 </r>
       <r>   -22.8415     0.0000     0.0000 </r>
       <r>   -22.7379     0.0000     0.0000 </r>
       <r>   -22.6343     0.0000     0.0000 </r>
       <r>   -22.5308     0.0000     0.0000 </r>
       <r>   -22.4272     0.0002     0.0000 </r>
       <r>   -22.3236     0.0028     0.0003 </r>
       <r>   -22.2201     0.0315     0.0036 </r>
       <r>   -22.1165     0.2081     0.0251 </r>
       <r>   -22.0129     0.8214     0.1102 </r>
       <r>   -21.9093     1.9385     0.3110 </r>
       <r>   -21.8058     2.7380     0.5945 </r>
       <r>   -21.7022     2.3157     0.8344 </r>
       <r>   -21.5986     1.1725     0.9558 </r>
       <r>   -21.4951     0.3551     0.9926 </r>
       <r>   -21.3915     0.0642     0.9992 </r>
       <r>   -21.2879     0.0069     1.0000 </r>
       <r>   -21.1844     0.0004     1.0000 </r>
       <r>   -21.0808     0.0000     1.0000 </r>
       <r>   -20.9772     0.0000     1.0000 </r>
       <r>   -20.8736     0.0000     1.0000 </r>
       <r>   -20.7701     0.0000     1.0000 </r>
       <r>   -20.6665     0.0000     1.0000 </r>
       <r>   -20.5629     0.0000     1.0000 </r>
       <r>   -20.4594     0.0000     1.0000 </r>
       <r>   -20.3558     0.0000     1.0000 </r>
       <r>   -20.2522     0.0000     1.0000 </r>
       <r>   -20.1487     0.0000     1.0000 </r>
       <r>   -20.0451     0.0000     1.0000 </r>
       <r>   -19.9415     0.0000     1.0000 </r>
       <r>   -19.8380     0.0000     1.0000 </r>
       <r>   -19.7344     0.0000     1.0000 </r>
       <r>   -19.6308     0.0000     1.0000 </r>
       <r>   -19.5272     0.0000     1.0000 </r>
       <r>   -19.4237     0.0000     1.0000 </r>
       <r>   -19.3201     0.0000     1.0000 </r>
       <r>   -19.2165     0.0000     1.0000 </r>
       <r>   -19.1130     0.0000     1.0000 </r>
       <r>   -19.0094     0.0000     1.0000 </r>
       <r>   -18.9058     0.0000     1.0000 </r>
       <r>   -18.8023     0.0000     1.0000 </r>
       <r>   -18.6987     0.0000     1.0000 </r>
       <r>   -18.5951     0.0000     1.0000 </r>
       <r>   -18.4916     0.0000     1.0000 </r>
       <r>   -18.3880     0.0000     1.0000 </r>
       <r>   -18.2844     0.0000     1.0000 </r>
       <r>   -18.1808     0.0000     1.0000 </r>
       <r>   -18.0773     0.0000     1.0000 </r>
       <r>   -17.9737     0.0000     1.0000 </r>
       <r>   -17.8701     0.0000     1.0000 </r>
       <r>   -17.7666     0.0000     1.0000 </r>
       <r>   -17.6630     0.0000     1.0000 </r>
       <r>   -17.5594     0.0000     1.0000 </r>
       <r>   -17.4559     0.0000     1.0000 </r>
       <r>   -17.3523     0.0000     1.0000 </r>
       <r>   -17.2487     0.0000     1.0000 </r>
       <r>   -17.1452     0.0000     1.0000 </r>
       <r>   -17.0416     0.0000     1.0000 </r>
       <r>   -16.9380     0.0000     1.0000 </r>
       <r>   -16.8344     0.0000     1.0000 </r>
       <r>   -16.7309     0.0000     1.0000 </r>
       <r>   -16.6273     0.0000     1.0000 </r>
       <r>   -16.5237     0.0000     1.0000 </r>
       <r>   -16.4202     0.0000     1.0000 </r>
       <r>   -16.3166     0.0000     1.0000 </r>
       <r>   -16.2130     0.0000     1.0000 </r>
       <r>   -16.1095     0.0000     1.0000 </r>
       <r>   -16.0059     0.0000     1.0000 </r>
       <r>   -15.9023     0.0000     1.0000 </r>
       <r>   -15.7988     0.0000     1.0000 </r>
       <r>   -15.6952     0.0000     1.0000 </r>
       <r>   -15.5916     0.0000     1.0000 </r>
       <r>   -15.4880     0.0000     1.0000 </r>
       <r>   -15.3845     0.0000     1.0000 </r>
       <r>   -15.2809     0.0000     1.0000 </r>
       <r>   -15.1773     0.0000     1.0000 </r>
       <r>   -15.0738     0.0000     1.0000 </r>
       <r>   -14.9702     0.0000     1.0000 </r>
       <r>   -14.8666     0.0000     1.0000 </r>
       <r>   -14.7631     0.0000     1.0000 </r>
       <r>   -14.6595     0.0000     1.0000 </r>
       <r>   -14.5559     0.0000     1.0000 </r>
       <r>   -14.4523     0.0000     1.0000 </r>
       <r>   -14.3488     0.0000     1.0000 </r>
       <r>   -14.2452     0.0000     1.0000 </r>
       <r>   -14.1416     0.0000     1.0000 </r>
       <r>   -14.0381     0.0000     1.0000 </r>
       <r>   -13.9345     0.0000     1.0000 </r>
       <r>   -13.8309     0.0000     1.0000 </r>
       <r>   -13.7274     0.0000     1.0000 </r>
       <r>   -13.6238     0.0000     1.0000 </r>
       <r>   -13.5202     0.0000     1.0000 </r>
       <r>   -13.4167     0.0000     1.0000 </r>
       <r>   -13.3131     0.0000     1.0000 </r>
       <r>   -13.2095     0.0000     1.0000 </r>
       <r>   -13.1059     0.0000     1.0000 </r>
       <r>   -13.0024     0.0000     1.0000 </r>
       <r>   -12.8988     0.0000     1.0000 </r>
       <r>   -12.7952     0.0000     1.0000 </r>
       <r>   -12.6917     0.0000     1.0000 </r>
       <r>   -12.5881     0.0000     1.0000 </r>
       <r>   -12.4845     0.0000     1.0000 </r>
       <r>   -12.3810     0.0000     1.0000 </r>
       <r>   -12.2774     0.0000     1.0000 </r>
       <r>   -12.1738     0.0000     1.0000 </r>
       <r>   -12.0703     0.0000     1.0000 </r>
       <r>   -11.9667     0.0000     1.0000 </r>
       <r>   -11.8631     0.0000     1.0000 </r>
       <r>   -11.7595     0.0000     1.0000 </r>
       <r>   -11.6560     0.0000     1.0000 </r>
       <r>   -11.5524     0.0000     1.0000 </r>
       <r>   -11.4488     0.0000     1.0000 </r>
       <r>   -11.3453     0.0000     1.0000 </r>
       <r>   -11.2417     0.0000     1.0000 </r>
       <r>   -11.1381     0.0000     1.0000 </r>
       <r>   -11.0346     0.0000     1.0000 </r>
       <r>   -10.9310     0.0000     1.0000 </r>
       <r>   -10.8274     0.0000     1.0000 </r>
       <r>   -10.7239     0.0000     1.0000 </r>
       <r>   -10.6203     0.0000     1.0000 </r>
       <r>   -10.5167     0.0000     1.0000 </r>
       <r>   -10.4131     0.0000     1.0000 </r>
       <r>   -10.3096     0.0000     1.0000 </r>
       <r>   -10.2060     0.0000     1.0000 </r>
       <r>   -10.1024     0.0000     1.0000 </r>
       <r>    -9.9989     0.0000     1.0000 </r>
       <r>    -9.8953     0.0000     1.0000 </r>
       <r>    -9.7917     0.0000     1.0000 </r>
       <r>    -9.6882     0.0000     1.0000 </r>
       <r>    -9.5846     0.0000     1.0000 </r>
       <r>    -9.4810     0.0000     1.0000 </r>
       <r>    -9.3775     0.0000     1.0000 </r>
       <r>    -9.2739     0.0000     1.0000 </r>
       <r>    -9.1703     0.0000     1.0000 </r>
       <r>    -9.0667     0.0000     1.0000 </r>
       <r>    -8.9632     0.0000     1.0000 </r>
       <r>    -8.8596     0.0000     1.0000 </r>
       <r>    -8.7560     0.0000     1.0000 </r>
       <r>    -8.6525     0.0000     1.0000 </r>
       <r>    -8.5489     0.0000     1.0000 </r>
       <r>    -8.4453     0.0000     1.0000 </r>
       <r>    -8.3418     0.0000     1.0000 </r>
       <r>    -8.2382     0.0000     1.0000 </r>
       <r>    -8.1346     0.0000     1.0000 </r>
       <r>    -8.0310     0.0000     1.0000 </r>
       <r>    -7.9275     0.0000     1.0000 </r>
       <r>    -7.8239     0.0000     1.0000 </r>
       <r>    -7.7203     0.0000     1.0000 </r>
       <r>    -7.6168     0.0010     1.0001 </r>
       <r>    -7.5132     0.0160     1.0018 </r>
       <r>    -7.4096     0.1566     1.0180 </r>
       <r>    -7.3061     0.9133     1.1126 </r>
       <r>    -7.2025     3.1815     1.4421 </r>
       <r>    -7.0989     6.6286     2.1286 </r>
       <r>    -6.9954     8.2673     2.9848 </r>
       <r>    -6.8918     6.1742     3.6243 </r>
       <r>    -6.7882     2.7600     3.9102 </r>
       <r>    -6.6846     0.7378     3.9866 </r>
       <r>    -6.5811     0.1178     3.9988 </r>
       <r>    -6.4775     0.0112     3.9999 </r>
       <r>    -6.3739     0.0006     4.0000 </r>
       <r>    -6.2704     0.0000     4.0000 </r>
       <r>    -6.1668     0.0000     4.0000 </r>
       <r>    -6.0632     0.0000     4.0000 </r>
       <r>    -5.9597     0.0000     4.0000 </r>
       <r>    -5.8561     0.0000     4.0000 </r>
       <r>    -5.7525     0.0000     4.0000 </r>
       <r>    -5.6490     0.0000     4.0000 </r>
       <r>    -5.5454     0.0000     4.0000 </r>
       <r>    -5.4418     0.0000     4.0000 </r>
       <r>    -5.3382     0.0000     4.0000 </r>
       <r>    -5.2347     0.0000     4.0000 </r>
       <r>    -5.1311     0.0000     4.0000 </r>
       <r>    -5.0275     0.0000     4.0000 </r>
       <r>    -4.9240     0.0000     4.0000 </r>
       <r>    -4.8204     0.0000     4.0000 </r>
       <r>    -4.7168     0.0000     4.0000 </r>
       <r>    -4.6133     0.0000     4.0000 </r>
       <r>    -4.5097     0.0000     4.0000 </r>
       <r>    -4.4061     0.0000     4.0000 </r>
       <r>    -4.3026     0.0000     4.0000 </r>
       <r>    -4.1990     0.0000     4.0000 </r>
       <r>    -4.0954     0.0000     4.0000 </r>
       <r>    -3.9918     0.0000     4.0000 </r>
       <r>    -3.8883     0.0000     4.0000 </r>
       <r>    -3.7847     0.0000     4.0000 </r>
       <r>    -3.6811     0.0000     4.0000 </r>
       <r>    -3.5776     0.0000     4.0000 </r>
       <r>    -3.4740     0.0000     4.0000 </r>
       <r>    -3.3704     0.0000     4.0000 </r>
       <r>    -3.2669     0.0000     4.0000 </r>
       <r>    -3.1633     0.0000     4.0000 </r>
       <r>    -3.0597     0.0000     4.0000 </r>
       <r>    -2.9561     0.0000     4.0000 </r>
       <r>    -2.8526     0.0000     4.0000 </r>
       <r>    -2.7490     0.0000     4.0000 </r>
       <r>    -2.6454     0.0000     4.0000 </r>
       <r>    -2.5419     0.0000     4.0000 </r>
       <r>    -2.4383     0.0000     4.0000 </r>
       <r>    -2.3347     0.0000     4.0000 </r>
       <r>    -2.2312     0.0000     4.0000 </r>
       <r>    -2.1276     0.0000     4.0000 </r>
       <r>    -2.0240     0.0000     4.0000 </r>
       <r>    -1.9205     0.0000     4.0000 </r>
       <r>    -1.8169     0.0000     4.0000 </r>
       <r>    -1.7133     0.0000     4.0000 </r>
       <r>    -1.6097     0.0000     4.0000 </r>
       <r>    -1.5062     0.0000     4.0000 </r>
       <r>    -1.4026     0.0000     4.0000 </r>
       <r>    -1.2990     0.0000     4.0000 </r>
       <r>    -1.1955     0.0000     4.0000 </r>
       <r>    -1.0919     0.0000     4.0000 </r>
       <r>    -0.9883     0.0000     4.0000 </r>
       <r>    -0.8848     0.0009     4.0001 </r>
       <r>    -0.7812     0.0128     4.0014 </r>
       <r>    -0.6776     0.1043     4.0122 </r>
       <r>    -0.5741     0.5053     4.0646 </r>
       <r>    -0.4705     1.4638     4.2162 </r>
       <r>    -0.3669     2.5370     4.4789 </r>
       <r>    -0.2633     2.6326     4.7516 </r>
       <r>    -0.1598     1.6357     4.9210 </r>
       <r>    -0.0562     0.6082     4.9840 </r>
       <r>     0.0474     0.1352     4.9980 </r>
       <r>     0.1509     0.0179     4.9998 </r>
       <r>     0.2545     0.0014     5.0000 </r>
       <r>     0.3581     0.0001     5.0000 </r>
       <r>     0.4616     0.0000     5.0000 </r>
       <r>     0.5652     0.0000     5.0000 </r>
       <r>     0.6688     0.0000     5.0000 </r>
       <r>     0.7723     0.0000     5.0000 </r>
       <r>     0.8759     0.0000     5.0000 </r>
       <r>     0.9795     0.0000     5.0000 </r>
       <r>     1.0831     0.0000     5.0000 </r>
       <r>     1.1866     0.0000     5.0000 </r>
       <r>     1.2902     0.0000     5.0000 </r>
       <r>     1.3938     0.0004     5.0000 </r>
       <r>     1.4973     0.0082     5.0009 </r>
       <r>     1.6009     0.0913     5.0103 </r>
       <r>     1.7045     0.6084     5.0734 </r>
       <r>     1.8080     2.4208     5.3241 </r>
       <r>     1.9116     5.7597     5.9206 </r>
       <r>     2.0152     8.2018     6.7701 </r>
       <r>     2.1187     6.9935     7.4944 </r>
       <r>     2.2223     3.5700     7.8641 </r>
       <r>     2.3259     1.0901     7.9770 </r>
       <r>     2.4295     0.1988     7.9976 </r>
       <r>     2.5330     0.0216     7.9998 </r>
       <r>     2.6366     0.0014     8.0000 </r>
       <r>     2.7402     0.0001     8.0000 </r>
       <r>     2.8437     0.0000     8.0000 </r>
       <r>     2.9473     0.0000     8.0000 </r>
       <r>     3.0509     0.0000     8.0000 </r>
       <r>     3.1544     0.0000     8.0000 </r>
       <r>     3.2580     0.0000     8.0000 </r>
       <r>     3.3616     0.0000     8.0000 </r>
       <r>     3.4652     0.0000     8.0000 </r>
       <r>     3.5687     0.0000     8.0000 </r>
       <r>     3.6723     0.0000     8.0000 </r>
       <r>     3.7759     0.0000     8.0000 </r>
       <r>     3.8794     0.0000     8.0000 </r>
       <r>     3.9830     0.0000     8.0000 </r>
      </set>
     </set>
    </array>
   </total>
  </dos>
 </calculation>
 <structure name="finalpos" >
  <crystal>
   <varray name="basis" >
    <v>       8.00000000       0.00000000       0.00000000 </v>
    <v>       0.00000000       8.00000000       0.00000000 </v>
    <v>       0.00000000       0.00000000       8.00000000 </v>
   </varray>
   <i name="volume">    512.00000000 </i>
   <varray name="rec_basis" >
    <v>       0.12500000       0.00000000       0.00000000 </v>
    <v>       0.00000000       0.12500000       0.00000000 </v>
    <v>       0.00000000       0.00000000       0.12500000 </v>
   </varray>
  </crystal>
  <varray name="positions" >
   <v>       0.00000000       0.00000000       0.00000000 </v>
  </varray>
 </structure>
</modeling>
