       N       E                     dE             d eps       ncg     rms          rms(c)
DAV:   1     0.384469664751E+02    0.38447E+02   -0.96726E+02    16   0.293E+02
DAV:   2     0.345965628963E+01   -0.34987E+02   -0.34942E+02    32   0.450E+01
DAV:   3    -0.244485866830E+00   -0.37041E+01   -0.34307E+01    16   0.308E+01
DAV:   4    -0.312557021141E+00   -0.68071E-01   -0.66914E-01    16   0.508E+00
DAV:   5    -0.313520305215E+00   -0.96328E-03   -0.96311E-03    32   0.506E-01    0.286E-01
DAV:   6    -0.314540466730E+00   -0.10202E-02   -0.17853E-03    16   0.332E-01    0.142E-01
DAV:   7    -0.314637222303E+00   -0.96756E-04   -0.22710E-04    16   0.134E-01
   1 F= -.31463722E+00 E0= -.16037490E+00  d E =-.308525E+00
