 running on    4 total cores
 distrk:  each k-point on    4 cores,    1 groups
 distr:  one band on    1 cores,    4 groups
 using from now: INCAR     
 vasp.5.4.4.18Apr17-6-g9f103f2a35 (build Dec 28 2021 15:39:15) complex           
 POSCAR found :  1 types and       1 ions
 scaLAPACK will be used
 LDA part: xc-table for Pade appr. of Perdew
 POSCAR, INCAR and KPOINTS ok, starting setup
 FFT: planning ...
 WAVECAR not read
 entering main loop
       N       E                     dE             d eps       ncg     rms          rms(c)
DAV:   1     0.384469664751E+02    0.38447E+02   -0.96726E+02    16   0.293E+02
DAV:   2     0.345965628963E+01   -0.34987E+02   -0.34942E+02    32   0.450E+01
DAV:   3    -0.244485866830E+00   -0.37041E+01   -0.34307E+01    16   0.308E+01
DAV:   4    -0.312557021141E+00   -0.68071E-01   -0.66914E-01    16   0.508E+00
DAV:   5    -0.313520305215E+00   -0.96328E-03   -0.96311E-03    32   0.506E-01    0.286E-01
DAV:   6    -0.314540466730E+00   -0.10202E-02   -0.17853E-03    16   0.332E-01    0.142E-01
DAV:   7    -0.314637222303E+00   -0.96756E-04   -0.22710E-04    16   0.134E-01
   1 F= -.31463722E+00 E0= -.16037490E+00  d E =-.308525E+00
 writing wavefunctions
