   2   2   0   0
  0.2560000E+03  0.8000000E-09  0.8000000E-09  0.8000000E-09  0.5000000E-15
   1.0000000000000000E-004
  CAR 
 CO dimer in a box                       
      3.89827116    -30.94333349  301     -7.82992107      1.00000000
    -30.943  0.0000E+00  0.0000E+00
    -30.827  0.0000E+00  0.0000E+00
    -30.711  0.0000E+00  0.0000E+00
    -30.595  0.0000E+00  0.0000E+00
    -30.479  0.0000E+00  0.0000E+00
    -30.363  0.0000E+00  0.0000E+00
    -30.247  0.0000E+00  0.0000E+00
    -30.130  0.0000E+00  0.0000E+00
    -30.014  0.6309E-13  0.7327E-14
    -29.898  0.2520E-10  0.2934E-11
    -29.782  0.5195E-08  0.6063E-09
    -29.666  0.5535E-06  0.6489E-07
    -29.550  0.3057E-04  0.3615E-05
    -29.434  0.8779E-03  0.1056E-03
    -29.317  0.1316E-01  0.1634E-02
    -29.201  0.1034E+00  0.1364E-01
    -29.085  0.4269E+00  0.6322E-01
    -28.969  0.9300E+00  0.1712E+00
    -28.853  0.1071E+01  0.2956E+00
    -28.737  0.6514E+00  0.3712E+00
    -28.621  0.2093E+00  0.3955E+00
    -28.504  0.3540E-01  0.3996E+00
    -28.388  0.3143E-02  0.4000E+00
    -28.272  0.1459E-03  0.4000E+00
    -28.156  0.3528E-05  0.4000E+00
    -28.040  0.4428E-07  0.4000E+00
    -27.924  0.2876E-09  0.4000E+00
    -27.808  0.9644E-12  0.4000E+00
    -27.691  0.1530E-14  0.4000E+00
    -27.575  0.0000E+00  0.4000E+00
    -27.459  0.0000E+00  0.4000E+00
    -27.343  0.0000E+00  0.4000E+00
    -27.227  0.0000E+00  0.4000E+00
    -27.111  0.0000E+00  0.4000E+00
    -26.995  0.0000E+00  0.4000E+00
    -26.878  0.0000E+00  0.4000E+00
    -26.762  0.0000E+00  0.4000E+00
    -26.646  0.0000E+00  0.4000E+00
    -26.530  0.0000E+00  0.4000E+00
    -26.414  0.0000E+00  0.4000E+00
    -26.298  0.0000E+00  0.4000E+00
    -26.182  0.0000E+00  0.4000E+00
    -26.066  0.0000E+00  0.4000E+00
    -25.949  0.0000E+00  0.4000E+00
    -25.833  0.0000E+00  0.4000E+00
    -25.717  0.0000E+00  0.4000E+00
    -25.601  0.0000E+00  0.4000E+00
    -25.485  0.0000E+00  0.4000E+00
    -25.369  0.0000E+00  0.4000E+00
    -25.253  0.0000E+00  0.4000E+00
    -25.136  0.0000E+00  0.4000E+00
    -25.020  0.0000E+00  0.4000E+00
    -24.904  0.0000E+00  0.4000E+00
    -24.788  0.0000E+00  0.4000E+00
    -24.672  0.0000E+00  0.4000E+00
    -24.556  0.0000E+00  0.4000E+00
    -24.440  0.0000E+00  0.4000E+00
    -24.323  0.0000E+00  0.4000E+00
    -24.207  0.0000E+00  0.4000E+00
    -24.091  0.0000E+00  0.4000E+00
    -23.975  0.0000E+00  0.4000E+00
    -23.859  0.0000E+00  0.4000E+00
    -23.743  0.0000E+00  0.4000E+00
    -23.627  0.0000E+00  0.4000E+00
    -23.510  0.0000E+00  0.4000E+00
    -23.394  0.0000E+00  0.4000E+00
    -23.278  0.0000E+00  0.4000E+00
    -23.162  0.0000E+00  0.4000E+00
    -23.046  0.0000E+00  0.4000E+00
    -22.930  0.0000E+00  0.4000E+00
    -22.814  0.0000E+00  0.4000E+00
    -22.697  0.0000E+00  0.4000E+00
    -22.581  0.0000E+00  0.4000E+00
    -22.465  0.0000E+00  0.4000E+00
    -22.349  0.0000E+00  0.4000E+00
    -22.233  0.0000E+00  0.4000E+00
    -22.117  0.0000E+00  0.4000E+00
    -22.001  0.0000E+00  0.4000E+00
    -21.885  0.0000E+00  0.4000E+00
    -21.768  0.0000E+00  0.4000E+00
    -21.652  0.0000E+00  0.4000E+00
    -21.536  0.0000E+00  0.4000E+00
    -21.420  0.0000E+00  0.4000E+00
    -21.304  0.0000E+00  0.4000E+00
    -21.188  0.0000E+00  0.4000E+00
    -21.072  0.0000E+00  0.4000E+00
    -20.955  0.0000E+00  0.4000E+00
    -20.839  0.0000E+00  0.4000E+00
    -20.723  0.0000E+00  0.4000E+00
    -20.607  0.0000E+00  0.4000E+00
    -20.491  0.0000E+00  0.4000E+00
    -20.375  0.0000E+00  0.4000E+00
    -20.259  0.0000E+00  0.4000E+00
    -20.142  0.0000E+00  0.4000E+00
    -20.026  0.0000E+00  0.4000E+00
    -19.910  0.0000E+00  0.4000E+00
    -19.794  0.0000E+00  0.4000E+00
    -19.678  0.0000E+00  0.4000E+00
    -19.562  0.0000E+00  0.4000E+00
    -19.446  0.0000E+00  0.4000E+00
    -19.329  0.0000E+00  0.4000E+00
    -19.213  0.0000E+00  0.4000E+00
    -19.097  0.0000E+00  0.4000E+00
    -18.981  0.0000E+00  0.4000E+00
    -18.865  0.0000E+00  0.4000E+00
    -18.749  0.0000E+00  0.4000E+00
    -18.633  0.0000E+00  0.4000E+00
    -18.516  0.0000E+00  0.4000E+00
    -18.400  0.0000E+00  0.4000E+00
    -18.284  0.0000E+00  0.4000E+00
    -18.168  0.0000E+00  0.4000E+00
    -18.052  0.0000E+00  0.4000E+00
    -17.936  0.0000E+00  0.4000E+00
    -17.820  0.0000E+00  0.4000E+00
    -17.704  0.0000E+00  0.4000E+00
    -17.587  0.0000E+00  0.4000E+00
    -17.471  0.0000E+00  0.4000E+00
    -17.355  0.0000E+00  0.4000E+00
    -17.239  0.0000E+00  0.4000E+00
    -17.123  0.0000E+00  0.4000E+00
    -17.007  0.0000E+00  0.4000E+00
    -16.891  0.0000E+00  0.4000E+00
    -16.774  0.0000E+00  0.4000E+00
    -16.658  0.0000E+00  0.4000E+00
    -16.542  0.0000E+00  0.4000E+00
    -16.426  0.0000E+00  0.4000E+00
    -16.310  0.0000E+00  0.4000E+00
    -16.194  0.0000E+00  0.4000E+00
    -16.078  0.0000E+00  0.4000E+00
    -15.961  0.0000E+00  0.4000E+00
    -15.845  0.0000E+00  0.4000E+00
    -15.729  0.0000E+00  0.4000E+00
    -15.613  0.0000E+00  0.4000E+00
    -15.497  0.0000E+00  0.4000E+00
    -15.381  0.0000E+00  0.4000E+00
    -15.265  0.0000E+00  0.4000E+00
    -15.148  0.0000E+00  0.4000E+00
    -15.032  0.0000E+00  0.4000E+00
    -14.916  0.7648E-15  0.4000E+00
    -14.800  0.4327E-12  0.4000E+00
    -14.684  0.1409E-09  0.4000E+00
    -14.568  0.2366E-07  0.4000E+00
    -14.452  0.2056E-05  0.4000E+00
    -14.336  0.9270E-04  0.4000E+00
    -14.219  0.2176E-02  0.4003E+00
    -14.103  0.2669E-01  0.4034E+00
    -13.987  0.1717E+00  0.4233E+00
    -13.871  0.5817E+00  0.4909E+00
    -13.755  0.1040E+01  0.6116E+00
    -13.639  0.9826E+00  0.7258E+00
    -13.523  0.4907E+00  0.7827E+00
    -13.406  0.1293E+00  0.7978E+00
    -13.290  0.1792E-01  0.7998E+00
    -13.174  0.1302E-02  0.8000E+00
    -13.058  0.4941E-04  0.8000E+00
    -12.942  0.9755E-06  0.8000E+00
    -12.826  0.9987E-08  0.8000E+00
    -12.710  0.5286E-10  0.8000E+00
    -12.593  0.1457E-12  0.8000E+00
    -12.477  0.6978E-12  0.8000E+00
    -12.361  0.2326E-09  0.8000E+00
    -12.245  0.3999E-07  0.8000E+00
    -12.129  0.3556E-05  0.8000E+00
    -12.013  0.1640E-03  0.8000E+00
    -11.897  0.3939E-02  0.8005E+00
    -11.780  0.4943E-01  0.8062E+00
    -11.664  0.3253E+00  0.8440E+00
    -11.548  0.1127E+01  0.9749E+00
    -11.432  0.2060E+01  0.1214E+01
    -11.316  0.1991E+01  0.1445E+01
    -11.200  0.1016E+01  0.1563E+01
    -11.084  0.2739E+00  0.1595E+01
    -10.967  0.3883E-01  0.1600E+01
    -10.851  0.2886E-02  0.1600E+01
    -10.735  0.1121E-03  0.1600E+01
    -10.619  0.2264E-05  0.1600E+01
    -10.503  0.2372E-07  0.1600E+01
    -10.387  0.1285E-09  0.1600E+01
    -10.271  0.3594E-12  0.1600E+01
    -10.155  0.0000E+00  0.1600E+01
    -10.038  0.0000E+00  0.1600E+01
     -9.922  0.7648E-15  0.1600E+01
     -9.806  0.4793E-12  0.1600E+01
     -9.690  0.1543E-09  0.1600E+01
     -9.574  0.2564E-07  0.1600E+01
     -9.458  0.2203E-05  0.1600E+01
     -9.342  0.9826E-04  0.1600E+01
     -9.225  0.2281E-02  0.1600E+01
     -9.109  0.2768E-01  0.1603E+01
     -8.993  0.1762E+00  0.1624E+01
     -8.877  0.5905E+00  0.1693E+01
     -8.761  0.1044E+01  0.1814E+01
     -8.645  0.9764E+00  0.1927E+01
     -8.529  0.4824E+00  0.1983E+01
     -8.412  0.1257E+00  0.1998E+01
     -8.296  0.1724E-01  0.2000E+01
     -8.180  0.1239E-02  0.2000E+01
     -8.064  0.4652E-04  0.2000E+01
     -7.948  0.9083E-06  0.2000E+01
     -7.832  0.9197E-08  0.2000E+01
     -7.716  0.4815E-10  0.2000E+01
     -7.599  0.1300E-12  0.2000E+01
     -7.483  0.0000E+00  0.2000E+01
     -7.367  0.0000E+00  0.2000E+01
     -7.251  0.0000E+00  0.2000E+01
     -7.135  0.0000E+00  0.2000E+01
     -7.019  0.0000E+00  0.2000E+01
     -6.903  0.0000E+00  0.2000E+01
     -6.786  0.0000E+00  0.2000E+01
     -6.670  0.0000E+00  0.2000E+01
     -6.554  0.0000E+00  0.2000E+01
     -6.438  0.0000E+00  0.2000E+01
     -6.322  0.0000E+00  0.2000E+01
     -6.206  0.0000E+00  0.2000E+01
     -6.090  0.0000E+00  0.2000E+01
     -5.974  0.0000E+00  0.2000E+01
     -5.857  0.0000E+00  0.2000E+01
     -5.741  0.0000E+00  0.2000E+01
     -5.625  0.0000E+00  0.2000E+01
     -5.509  0.0000E+00  0.2000E+01
     -5.393  0.0000E+00  0.2000E+01
     -5.277  0.0000E+00  0.2000E+01
     -5.161  0.0000E+00  0.2000E+01
     -5.044  0.0000E+00  0.2000E+01
     -4.928  0.0000E+00  0.2000E+01
     -4.812  0.0000E+00  0.2000E+01
     -4.696  0.0000E+00  0.2000E+01
     -4.580  0.0000E+00  0.2000E+01
     -4.464  0.0000E+00  0.2000E+01
     -4.348  0.0000E+00  0.2000E+01
     -4.231  0.0000E+00  0.2000E+01
     -4.115  0.0000E+00  0.2000E+01
     -3.999  0.0000E+00  0.2000E+01
     -3.883  0.0000E+00  0.2000E+01
     -3.767  0.0000E+00  0.2000E+01
     -3.651  0.0000E+00  0.2000E+01
     -3.535  0.0000E+00  0.2000E+01
     -3.418  0.0000E+00  0.2000E+01
     -3.302  0.0000E+00  0.2000E+01
     -3.186  0.0000E+00  0.2000E+01
     -3.070  0.0000E+00  0.2000E+01
     -2.954  0.1036E-12  0.2000E+01
     -2.838  0.4221E-10  0.2000E+01
     -2.722  0.8883E-08  0.2000E+01
     -2.605  0.9662E-06  0.2000E+01
     -2.489  0.5446E-04  0.2000E+01
     -2.373  0.1596E-02  0.2000E+01
     -2.257  0.2442E-01  0.2003E+01
     -2.141  0.1957E+00  0.2026E+01
     -2.025  0.8247E+00  0.2122E+01
     -1.909  0.1833E+01  0.2334E+01
     -1.793  0.2152E+01  0.2584E+01
     -1.676  0.1336E+01  0.2740E+01
     -1.560  0.4379E+00  0.2790E+01
     -1.444  0.7558E-01  0.2799E+01
     -1.328  0.6848E-02  0.2800E+01
     -1.212  0.3244E-03  0.2800E+01
     -1.096  0.8059E-05  0.2800E+01
     -0.980  0.4224E-05  0.2800E+01
     -0.863  0.1662E-03  0.2800E+01
     -0.747  0.3492E-02  0.2800E+01
     -0.631  0.3836E-01  0.2805E+01
     -0.515  0.2212E+00  0.2831E+01
     -0.399  0.6719E+00  0.2909E+01
     -0.283  0.1077E+01  0.3034E+01
     -0.167  0.9132E+00  0.3140E+01
     -0.050  0.4090E+00  0.3187E+01
      0.066  0.9661E-01  0.3199E+01
      0.182  0.1200E-01  0.3200E+01
      0.298  0.7806E-03  0.3200E+01
      0.414  0.2651E-04  0.3200E+01
      0.530  0.4680E-06  0.3200E+01
      0.646  0.4283E-08  0.3200E+01
      0.763  0.1253E-09  0.3200E+01
      0.879  0.1833E-07  0.3200E+01
      0.995  0.1659E-05  0.3200E+01
      1.111  0.7838E-04  0.3200E+01
      1.227  0.1952E-02  0.3200E+01
      1.343  0.2610E-01  0.3203E+01
      1.459  0.1930E+00  0.3226E+01
      1.575  0.8270E+00  0.3322E+01
      1.692  0.2166E+01  0.3573E+01
      1.808  0.3581E+01  0.3989E+01
      1.924  0.3694E+01  0.4418E+01
      2.040  0.2287E+01  0.4684E+01
      2.156  0.8176E+00  0.4779E+01
      2.272  0.1643E+00  0.4798E+01
      2.388  0.1822E-01  0.4800E+01
      2.505  0.1099E-02  0.4800E+01
      2.621  0.3562E-04  0.4800E+01
      2.737  0.6135E-06  0.4800E+01
      2.853  0.5564E-08  0.4800E+01
      2.969  0.2637E-10  0.4800E+01
      3.085  0.6462E-13  0.4800E+01
      3.201  0.0000E+00  0.4800E+01
      3.318  0.0000E+00  0.4800E+01
      3.434  0.0000E+00  0.4800E+01
      3.550  0.0000E+00  0.4800E+01
      3.666  0.0000E+00  0.4800E+01
      3.782  0.0000E+00  0.4800E+01
      3.898  0.0000E+00  0.4800E+01
