    2    2    5    1
  0.2560000E+03  0.8000000E-09  0.8000000E-09  0.8000000E-09  0.5000000E-15
   1.0000000000000000E-004
  CAR 
 CO dimer in a box                       
     10      1     12

  0.0000000E+00  0.0000000E+00  0.0000000E+00  0.1000000E+01
    1      -28.943333   1.000000
    2      -13.765131   1.000000
    3      -11.438287   1.000000
    4      -11.438287   1.000000
    5       -8.773113   1.000000
    6       -1.879388   0.000000
    7       -1.879388   0.000000
    8       -0.312841   0.000000
    9        1.687579   0.000000
   10        1.823851   0.000000
   11        1.823851   0.000000
   12        1.898271   0.000000
