 vasp.5.4.4.18Apr17-6-g9f103f2a35 (build Dec 28 2021 15:39:15) complex           
 executed on             LinuxGNU date 2021.12.31  11:00:56
 running on    4 total cores
 distrk:  each k-point on    4 cores,    1 groups
 distr:  one band on NCORES_PER_BAND=   1 cores,    4 groups


--------------------------------------------------------------------------------------------------------


 INCAR:
 POTCAR:   PAW_RPBE O 08Apr2002                   
 POTCAR:   PAW_RPBE C 08Apr2002                   
 POTCAR:   PAW_RPBE O 08Apr2002                   
   VRHFIN =O: s2p4                                                              
   LEXCH  = PE                                                                  
   EATOM  =   432.3788 eV,   31.7789 Ry                                         
                                                                                
   TITEL  = PAW_RPBE O 08Apr2002                                                
   LULTRA =        F    use ultrasoft PP ?                                      
   IUNSCR =        0    unscreen: 0-lin 1-nonlin 2-no                           
   RPACOR =     .000    partial core radius                                     
   POMASS =   16.000; ZVAL   =    6.000    mass and valenz                      
   RCORE  =    1.520    outmost cutoff radius                                   
   RWIGS  =    1.550; RWIGS  =     .820    wigner-seitz radius (au A)           
   ENMAX  =  400.000; ENMIN  =  300.000 eV                                      
   ICORE  =        2    local potential                                         
   LCOR   =        T    correct aug charges                                     
   LPAW   =        T    paw PP                                                  
   EAUG   =  605.392                                                            
   DEXC   =     .000                                                            
   RMAX   =    2.264    core radius for proj-oper                               
   RAUG   =    1.300    factor for augmentation sphere                          
   RDEP   =    1.550    radius for radial grids                                 
   QCUT   =   -5.520; QGAM   =   11.041    optimization parameters              
                                                                                
   Description                                                                  
     l     E      TYP  RCUT    TYP  RCUT                                        
     0   .000     23  1.200                                                     
     0  -.700     23  1.200                                                     
     1   .000     23  1.520                                                     
     1   .600     23  1.520                                                     
     2   .000      7  1.500                                                     
  local pseudopotential read in
  atomic valenz-charges read in
  non local Contribution for L=           0  read in
    real space projection operators read in
  non local Contribution for L=           0  read in
    real space projection operators read in
  non local Contribution for L=           1  read in
    real space projection operators read in
  non local Contribution for L=           1  read in
    real space projection operators read in
    PAW grid and wavefunctions read in

   number of l-projection  operators is LMAX  =           4
   number of lm-projection operators is LMMAX =           8

 POTCAR:   PAW_RPBE C 08Apr2002                   
   VRHFIN =C: s2p2                                                              
   LEXCH  = PE                                                                  
   EATOM  =   147.1560 eV,   10.8157 Ry                                         
                                                                                
   TITEL  = PAW_RPBE C 08Apr2002                                                
   LULTRA =        F    use ultrasoft PP ?                                      
   IUNSCR =        0    unscreen: 0-lin 1-nonlin 2-no                           
   RPACOR =     .000    partial core radius                                     
   POMASS =   12.011; ZVAL   =    4.000    mass and valenz                      
   RCORE  =    1.500    outmost cutoff radius                                   
   RWIGS  =    1.630; RWIGS  =     .863    wigner-seitz radius (au A)           
   ENMAX  =  400.000; ENMIN  =  300.000 eV                                      
   ICORE  =        2    local potential                                         
   LCOR   =        T    correct aug charges                                     
   LPAW   =        T    paw PP                                                  
   EAUG   =  644.873                                                            
   DEXC   =     .000                                                            
   RMAX   =    2.266    core radius for proj-oper                               
   RAUG   =    1.300    factor for augmentation sphere                          
   RDEP   =    1.501    radius for radial grids                                 
   RDEPT  =    1.300    core radius for aug-charge                              
   QCUT   =   -5.516; QGAM   =   11.032    optimization parameters              
                                                                                
   Description                                                                  
     l     E      TYP  RCUT    TYP  RCUT                                        
     0   .000     23  1.200                                                     
     0   .000     23  1.200                                                     
     1   .000     23  1.500                                                     
     1  2.500     23  1.500                                                     
     2   .000      7  1.500                                                     
  local pseudopotential read in
  atomic valenz-charges read in
  non local Contribution for L=           0  read in
    real space projection operators read in
  non local Contribution for L=           0  read in
    real space projection operators read in
  non local Contribution for L=           1  read in
    real space projection operators read in
  non local Contribution for L=           1  read in
    real space projection operators read in
    PAW grid and wavefunctions read in

   number of l-projection  operators is LMAX  =           4
   number of lm-projection operators is LMMAX =           8

 PAW_RPBE O 08Apr2002                   :
 energy of atom  1       EATOM= -432.3788
 kinetic energy error for atom=    0.1156 (will be added to EATOM!!)
 PAW_RPBE C 08Apr2002                   :
 energy of atom  2       EATOM= -147.1560
 kinetic energy error for atom=    0.0288 (will be added to EATOM!!)


 POSCAR: O atom in a box                         
  positions in cartesian coordinates
  No initial velocities read in
 exchange correlation table for  LEXCH =        8
   RHO(1)=    0.500       N(1)  =     2000
   RHO(2)=  100.500       N(2)  =     4000



--------------------------------------------------------------------------------------------------------


 ion  position               nearest neighbor table
   1  0.000  0.000  0.000-   2 1.12
   2  0.000  0.000  0.140-   1 1.12

  LATTYP: Found a simple cubic cell.
 ALAT       =     8.0000000000
  
  Lattice vectors:
  
 A1 = (   8.0000000000,   0.0000000000,   0.0000000000)
 A2 = (   0.0000000000,   8.0000000000,   0.0000000000)
 A3 = (   0.0000000000,   0.0000000000,   8.0000000000)


Analysis of symmetry for initial positions (statically):
=====================================================================
 Subroutine PRICEL returns:
 Original cell was already a primitive cell.
 

 Routine SETGRP: Setting up the symmetry group for a 
 simple cubic supercell.


 Subroutine GETGRP returns: Found  8 space group operations
 (whereof  8 operations were pure point group operations)
 out of a pool of 48 trial point group operations.


The static configuration has the point symmetry C_4v.


Analysis of symmetry for dynamics (positions and initial velocities):
=====================================================================
 Subroutine PRICEL returns:
 Original cell was already a primitive cell.
 

 Routine SETGRP: Setting up the symmetry group for a 
 simple cubic supercell.


 Subroutine GETGRP returns: Found  8 space group operations
 (whereof  8 operations were pure point group operations)
 out of a pool of 48 trial point group operations.


The dynamic configuration has the point symmetry C_4v.


 Subroutine INISYM returns: Found  8 space group operations
 (whereof  8 operations are pure point group operations),
 and found     1 'primitive' translations



 KPOINTS: Gamma-point only                        
  k-points in reciprocal lattice
Space group operators:
 irot       det(A)        alpha          n_x          n_y          n_z        tau_x        tau_y        tau_z
    1     1.000000     0.000000     1.000000     0.000000     0.000000     0.000000     0.000000     0.000000
    2     1.000000    90.000000     0.000000     0.000000    -1.000000     0.000000     0.000000     0.000000
    3     1.000000   180.000000     0.000000     0.000000     1.000000     0.000000     0.000000     0.000000
    4     1.000000    90.000000     0.000000     0.000000     1.000000     0.000000     0.000000     0.000000
    5    -1.000000   180.000000     1.000000     0.000000     0.000000     0.000000     0.000000     0.000000
    6    -1.000000   180.000000     0.707107     0.707107     0.000000     0.000000     0.000000     0.000000
    7    -1.000000   180.000000     0.000000     1.000000     0.000000     0.000000     0.000000     0.000000
    8    -1.000000   180.000000     0.707107    -0.707107     0.000000     0.000000     0.000000     0.000000


--------------------------------------------------------------------------------------------------------




 Dimension of arrays:
   k-points           NKPTS =      1   k-points in BZ     NKDIM =      1   number of bands    NBANDS=     12
   number of dos      NEDOS =    301   number of ions     NIONS =      2
   non local maximal  LDIM  =      4   non local SUM 2l+1 LMDIM =      8
   total plane-waves  NPLWV =  64000
   max r-space proj   IRMAX =      1   max aug-charges    IRDMAX=   1821
   dimension x,y,z NGX =    40 NGY =   40 NGZ =   40
   dimension x,y,z NGXF=    80 NGYF=   80 NGZF=   80
   support grid    NGXF=    80 NGYF=   80 NGZF=   80
   ions per type =               1   1
   NGX,Y,Z   is equivalent  to a cutoff of   8.31,  8.31,  8.31 a.u.
   NGXF,Y,Z  is equivalent  to a cutoff of  16.62, 16.62, 16.62 a.u.

 SYSTEM =  CO dimer in a box                       
 POSCAR =  O atom in a box                         

 Startparameter for this run:
   NWRITE =      2    write-flag & timer
   PREC   = normal    normal or accurate (medium, high low for compatibility)
   ISTART =      0    job   : 0-new  1-cont  2-samecut
   ICHARG =      2    charge: 1-file 2-atom 10-const
   ISPIN  =      1    spin polarized calculation?
   LNONCOLLINEAR =      F non collinear calculations
   LSORBIT =      F    spin-orbit coupling
   INIWAV =      1    electr: 0-lowe 1-rand  2-diag
   LASPH  =      F    aspherical Exc in radial PAW
   METAGGA=      F    non-selfconsistent MetaGGA calc.

 Electronic Relaxation 1
   ENCUT  =  400.0 eV  29.40 Ry    5.42 a.u.  13.05 13.05 13.05*2*pi/ulx,y,z
   ENINI  =  400.0     initial cutoff
   ENAUG  =  644.9 eV  augmentation charge cutoff
   NELM   =     60;   NELMIN=  2; NELMDL= -5     # of ELM steps 
   EDIFF  = 0.1E-03   stopping-criterion for ELM
   LREAL  =      F    real-space projection
   NLSPLINE    = F    spline interpolate recip. space projectors
   LCOMPAT=      F    compatible to vasp.4.4
   GGA_COMPAT  = T    GGA compatible to vasp.4.4-vasp.4.6
   LMAXPAW     = -100 max onsite density
   LMAXMIX     =    2 max onsite mixed and CHGCAR
   VOSKOWN=      0    Vosko Wilk Nusair interpolation
   ROPT   =    0.00000   0.00000
 Ionic relaxation
   EDIFFG = 0.1E-02   stopping-criterion for IOM
   NSW    =      5    number of steps for IOM
   NBLOCK =      1;   KBLOCK =      5    inner block; outer block 
   IBRION =      2    ionic relax: 0-MD 1-quasi-New 2-CG
   NFREE  =      1    steps in history (QN), initial steepest desc. (CG)
   ISIF   =      2    stress and relaxation
   IWAVPR =     11    prediction:  0-non 1-charg 2-wave 3-comb
   ISYM   =      2    0-nonsym 1-usesym 2-fastsym
   LCORR  =      T    Harris-Foulkes like correction to forces

   POTIM  = 0.5000    time-step for ionic-motion
   TEIN   =    0.0    initial temperature
   TEBEG  =    0.0;   TEEND  =   0.0 temperature during run
   SMASS  =  -3.00    Nose mass-parameter (am)
   estimated Nose-frequenzy (Omega)   =  0.10E-29 period in steps =****** mass=  -0.146E-26a.u.
   SCALEE = 1.0000    scale energy and forces
   NPACO  =    256;   APACO  = 16.0  distance and # of slots for P.C.
   PSTRESS=    0.0 pullay stress

  Mass of Ions in am
   POMASS =  16.00 12.01
  Ionic Valenz
   ZVAL   =   6.00  4.00
  Atomic Wigner-Seitz radii
   RWIGS  =  -1.00 -1.00
  virtual crystal weights 
   VCA    =   1.00  1.00
   NELECT =      10.0000    total number of electrons
   NUPDOWN=      -1.0000    fix difference up-down

 DOS related values:
   EMIN   =  10.00;   EMAX   =-10.00  energy-range for DOS
   EFERMI =   0.00
   ISMEAR =     0;   SIGMA  =   0.20  broadening in eV -4-tet -1-fermi 0-gaus

 Electronic relaxation 2 (details)
   IALGO  =     38    algorithm
   LDIAG  =      T    sub-space diagonalisation (order eigenvalues)
   LSUBROT=      F    optimize rotation matrix (better conditioning)
   TURBO    =      0    0=normal 1=particle mesh
   IRESTART =      0    0=no restart 2=restart with 2 vectors
   NREBOOT  =      0    no. of reboots
   NMIN     =      0    reboot dimension
   EREF     =   0.00    reference energy to select bands
   IMIX   =      4    mixing-type and parameters
     AMIX     =   0.40;   BMIX     =  1.00
     AMIX_MAG =   1.60;   BMIX_MAG =  1.00
     AMIN     =   0.10
     WC   =   100.;   INIMIX=   1;  MIXPRE=   1;  MAXMIX= -45

 Intra band minimization:
   WEIMIN = 0.0010     energy-eigenvalue tresh-hold
   EBREAK =  0.21E-05  absolut break condition
   DEPER  =   0.30     relativ break condition  

   TIME   =   0.40     timestep for ELM

  volume/ion in A,a.u.               =     256.00      1727.57
  Fermi-wavevector in a.u.,A,eV,Ry     =   0.440878  0.833138  2.644608  0.194373
  Thomas-Fermi vector in A             =   1.415836

 Write flags
   LWAVE        =      T    write WAVECAR
   LDOWNSAMPLE  =      F    k-point downsampling of WAVECAR
   LCHARG       =      T    write CHGCAR
   LVTOT        =      F    write LOCPOT, total local potential
   LVHAR        =      F    write LOCPOT, Hartree potential only
   LELF         =      F    write electronic localiz. function (ELF)
   LORBIT       =      0    0 simple, 1 ext, 2 COOP (PROOUT), +10 PAW based schemes


 Dipole corrections
   LMONO  =      F    monopole corrections only (constant potential shift)
   LDIPOL =      F    correct potential (dipole corrections)
   IDIPOL =      0    1-x, 2-y, 3-z, 4-all directions 
   EPSILON=  1.0000000 bulk dielectric constant

 Exchange correlation treatment:
   GGA     =    --    GGA type
   LEXCH   =     8    internal setting for exchange type
   VOSKOWN=      0    Vosko Wilk Nusair interpolation
   LHFCALC =     F    Hartree Fock is set to
   LHFONE  =     F    Hartree Fock one center treatment
   AEXX    =    0.0000 exact exchange contribution

 Linear response parameters
   LEPSILON=     F    determine dielectric tensor
   LRPA    =     F    only Hartree local field effects (RPA)
   LNABLA  =     F    use nabla operator in PAW spheres
   LVEL    =     F    velocity operator in full k-point grid
   LINTERFAST=   F  fast interpolation
   KINTER  =     0    interpolate to denser k-point grid
   CSHIFT  =0.1000    complex shift for real part using Kramers Kronig
   OMEGAMAX=  -1.0    maximum frequency
   DEG_THRESHOLD= 0.2000000E-02 threshold for treating states as degnerate
   RTIME   =   -0.100 relaxation time in fs
  (WPLASMAI=    0.000 imaginary part of plasma frequency in eV, 0.658/RTIME)
   DFIELD  = 0.0000000 0.0000000 0.0000000 field for delta impulse in time

 Orbital magnetization related:
   ORBITALMAG=     F  switch on orbital magnetization
   LCHIMAG   =     F  perturbation theory with respect to B field
   DQ        =  0.001000  dq finite difference perturbation B field
   LLRAUG    =     F  two centre corrections for induced B field



--------------------------------------------------------------------------------------------------------


 conjugate gradient relaxation of ions
 charge density and potential will be updated during run
 non-spin polarized calculation
 Variant of blocked Davidson
 Davidson routine will perform the subspace rotation
 perform sub-space diagonalisation
    after iterative eigenvector-optimisation
 modified Broyden-mixing scheme, WC =      100.0
 initial mixing is a Kerker type mixing with AMIX =  0.4000 and BMIX =      1.0000
 Hartree-type preconditioning will be used
 using additional bands            7
 reciprocal scheme for non local part
 calculate Harris-corrections to forces   (improved forces if not selfconsistent)
 use gradient corrections 
 use of overlap-Matrix (Vanderbilt PP)
 Gauss-broadening in eV      SIGMA  =   0.20


--------------------------------------------------------------------------------------------------------


  energy-cutoff  :      400.00
  volume of cell :      512.00
      direct lattice vectors                 reciprocal lattice vectors
     8.000000000  0.000000000  0.000000000     0.125000000  0.000000000  0.000000000
     0.000000000  8.000000000  0.000000000     0.000000000  0.125000000  0.000000000
     0.000000000  0.000000000  8.000000000     0.000000000  0.000000000  0.125000000

  length of vectors
     8.000000000  8.000000000  8.000000000     0.125000000  0.125000000  0.125000000



 k-points in units of 2pi/SCALE and weight: Gamma-point only                        
   0.00000000  0.00000000  0.00000000       1.000

 k-points in reciprocal lattice and weights: Gamma-point only                        
   0.00000000  0.00000000  0.00000000       1.000

 position of ions in fractional coordinates (direct lattice) 
   0.00000000  0.00000000  0.00000000
   0.00000000  0.00000000  0.14000000

 position of ions in cartesian coordinates  (Angst):
   0.00000000  0.00000000  0.00000000
   0.00000000  0.00000000  1.12000000



--------------------------------------------------------------------------------------------------------


 k-point  1 :   0.0000 0.0000 0.0000  plane waves:    9315

 maximum and minimum number of plane-waves per node :      9315     9315

 maximum number of plane-waves:      9315
 maximum index in each direction: 
   IXMAX=   13   IYMAX=   13   IZMAX=   13
   IXMIN=  -13   IYMIN=  -13   IZMIN=  -13


 serial   3D FFT for wavefunctions
 parallel 3D FFT for charge:
    minimum data exchange during FFTs selected (reduces bandwidth)


 total amount of memory used by VASP MPI-rank0    46485. kBytes
=======================================================================

   base      :      30000. kBytes
   nonl-proj :       1490. kBytes
   fftplans  :       4661. kBytes
   grid      :       9881. kBytes
   one-center:          6. kBytes
   wavefun   :        447. kBytes

     INWAV:  cpu time    0.0000: real time    0.0000
 Broyden mixing: mesh for mixing (old mesh)
   NGX = 27   NGY = 27   NGZ = 27
  (NGX  = 80   NGY  = 80   NGZ  = 80)
  gives a total of  19683 points

 initial charge density was supplied:
 charge density of overlapping atoms calculated
 number of electron      10.0000000 magnetization 
 keeping initial charge density in first step


--------------------------------------------------------------------------------------------------------


 Maximum index for augmentation-charges          395 (set IRDMAX)


--------------------------------------------------------------------------------------------------------


 First call to EWALD:  gamma=   0.222
 Maximum number of real-space cells 3x 3x 3
 Maximum number of reciprocal cells 3x 3x 3

    FEWALD:  cpu time    0.0003: real time    0.0003


--------------------------------------- Iteration      1(   1)  ---------------------------------------


    POTLOK:  cpu time    0.0742: real time    0.0742
    SETDIJ:  cpu time    0.0007: real time    0.0007
     EDDAV:  cpu time    0.0324: real time    0.0324
       DOS:  cpu time    0.0001: real time    0.0001
    --------------------------------------------
      LOOP:  cpu time    0.1074: real time    0.1074

 eigenvalue-minimisations  :    24
 total energy-change (2. order) : 0.7304726E+02  (-0.2008963E+03)
 number of electron      10.0000000 magnetization 
 augmentation part       10.0000000 magnetization 

 Free energy of the ion-electron system (eV)
  ---------------------------------------------------
  alpha Z        PSCENC =         0.85010715
  Ewald energy   TEWEN  =        55.03899630
  -Hartree energ DENC   =      -516.02856100
  -exchange      EXHF   =         0.00000000
  -V(xc)+E(xc)   XCENC  =        39.95561961
  PAW double counting   =       283.82984571     -286.83001101
  entropy T*S    EENTRO =        -0.00000143
  eigenvalues    EBANDS =       -83.15915765
  atomic energy  EATOM  =       579.39041991
  Solvation  Ediel_sol  =         0.00000000
  ---------------------------------------------------
  free energy    TOTEN  =        73.04725759 eV

  energy without entropy =       73.04725902  energy(sigma->0) =       73.04725831


--------------------------------------------------------------------------------------------------------




--------------------------------------- Iteration      1(   2)  ---------------------------------------


     EDDAV:  cpu time    0.0460: real time    0.0460
       DOS:  cpu time    0.0001: real time    0.0001
    --------------------------------------------
      LOOP:  cpu time    0.0461: real time    0.0460

 eigenvalue-minimisations  :    36
 total energy-change (2. order) :-0.7759012E+02  (-0.7679200E+02)
 number of electron      10.0000000 magnetization 
 augmentation part       10.0000000 magnetization 

 Free energy of the ion-electron system (eV)
  ---------------------------------------------------
  alpha Z        PSCENC =         0.85010715
  Ewald energy   TEWEN  =        55.03899630
  -Hartree energ DENC   =      -516.02856100
  -exchange      EXHF   =         0.00000000
  -V(xc)+E(xc)   XCENC  =        39.95561961
  PAW double counting   =       283.82984571     -286.83001101
  entropy T*S    EENTRO =        -0.00000000
  eigenvalues    EBANDS =      -160.74927542
  atomic energy  EATOM  =       579.39041991
  Solvation  Ediel_sol  =         0.00000000
  ---------------------------------------------------
  free energy    TOTEN  =        -4.54285874 eV

  energy without entropy =       -4.54285874  energy(sigma->0) =       -4.54285874


--------------------------------------------------------------------------------------------------------




--------------------------------------- Iteration      1(   3)  ---------------------------------------


     EDDAV:  cpu time    0.0533: real time    0.0533
       DOS:  cpu time    0.0001: real time    0.0001
    --------------------------------------------
      LOOP:  cpu time    0.0534: real time    0.0534

 eigenvalue-minimisations  :    44
 total energy-change (2. order) :-0.1105244E+02  (-0.1104663E+02)
 number of electron      10.0000000 magnetization 
 augmentation part       10.0000000 magnetization 

 Free energy of the ion-electron system (eV)
  ---------------------------------------------------
  alpha Z        PSCENC =         0.85010715
  Ewald energy   TEWEN  =        55.03899630
  -Hartree energ DENC   =      -516.02856100
  -exchange      EXHF   =         0.00000000
  -V(xc)+E(xc)   XCENC  =        39.95561961
  PAW double counting   =       283.82984571     -286.83001101
  entropy T*S    EENTRO =        -0.00000000
  eigenvalues    EBANDS =      -171.80171777
  atomic energy  EATOM  =       579.39041991
  Solvation  Ediel_sol  =         0.00000000
  ---------------------------------------------------
  free energy    TOTEN  =       -15.59530110 eV

  energy without entropy =      -15.59530110  energy(sigma->0) =      -15.59530110


--------------------------------------------------------------------------------------------------------




--------------------------------------- Iteration      1(   4)  ---------------------------------------


     EDDAV:  cpu time    0.0460: real time    0.0460
       DOS:  cpu time    0.0001: real time    0.0001
    --------------------------------------------
      LOOP:  cpu time    0.0461: real time    0.0461

 eigenvalue-minimisations  :    36
 total energy-change (2. order) :-0.5199563E-01  (-0.5199431E-01)
 number of electron      10.0000000 magnetization 
 augmentation part       10.0000000 magnetization 

 Free energy of the ion-electron system (eV)
  ---------------------------------------------------
  alpha Z        PSCENC =         0.85010715
  Ewald energy   TEWEN  =        55.03899630
  -Hartree energ DENC   =      -516.02856100
  -exchange      EXHF   =         0.00000000
  -V(xc)+E(xc)   XCENC  =        39.95561961
  PAW double counting   =       283.82984571     -286.83001101
  entropy T*S    EENTRO =        -0.00000000
  eigenvalues    EBANDS =      -171.85371341
  atomic energy  EATOM  =       579.39041991
  Solvation  Ediel_sol  =         0.00000000
  ---------------------------------------------------
  free energy    TOTEN  =       -15.64729673 eV

  energy without entropy =      -15.64729673  energy(sigma->0) =      -15.64729673


--------------------------------------------------------------------------------------------------------




--------------------------------------- Iteration      1(   5)  ---------------------------------------


     EDDAV:  cpu time    0.0413: real time    0.0413
       DOS:  cpu time    0.0001: real time    0.0001
    CHARGE:  cpu time    0.0136: real time    0.0136
    MIXING:  cpu time    0.0027: real time    0.0027
    --------------------------------------------
      LOOP:  cpu time    0.0578: real time    0.0578

 eigenvalue-minimisations  :    32
 total energy-change (2. order) :-0.2422822E-04  (-0.2422757E-04)
 number of electron      10.0000113 magnetization 
 augmentation part        0.7343273 magnetization 

 Broyden mixing:
  rms(total) = 0.63920E+00    rms(broyden)= 0.63797E+00
  rms(prec ) = 0.85434E+00
  weight for this iteration     100.00

 Free energy of the ion-electron system (eV)
  ---------------------------------------------------
  alpha Z        PSCENC =         0.85010715
  Ewald energy   TEWEN  =        55.03899630
  -Hartree energ DENC   =      -516.02856100
  -exchange      EXHF   =         0.00000000
  -V(xc)+E(xc)   XCENC  =        39.95561961
  PAW double counting   =       283.82984571     -286.83001101
  entropy T*S    EENTRO =        -0.00000000
  eigenvalues    EBANDS =      -171.85373764
  atomic energy  EATOM  =       579.39041991
  Solvation  Ediel_sol  =         0.00000000
  ---------------------------------------------------
  free energy    TOTEN  =       -15.64732096 eV

  energy without entropy =      -15.64732096  energy(sigma->0) =      -15.64732096


--------------------------------------------------------------------------------------------------------




--------------------------------------- Iteration      1(   6)  ---------------------------------------


    POTLOK:  cpu time    0.0780: real time    0.0780
    SETDIJ:  cpu time    0.0008: real time    0.0008
     EDDAV:  cpu time    0.0531: real time    0.0531
       DOS:  cpu time    0.0001: real time    0.0001
    CHARGE:  cpu time    0.0100: real time    0.0101
    MIXING:  cpu time    0.0024: real time    0.0031
    --------------------------------------------
      LOOP:  cpu time    0.1444: real time    0.1452

 eigenvalue-minimisations  :    32
 total energy-change (2. order) : 0.7124876E+00  (-0.3223043E+00)
 number of electron      10.0000098 magnetization 
 augmentation part        0.6596510 magnetization 

 Broyden mixing:
  rms(total) = 0.32136E+00    rms(broyden)= 0.32102E+00
  rms(prec ) = 0.41429E+00
  weight for this iteration     100.00

 eigenvalues of (default mixing * dielectric matrix)
  average eigenvalue GAMMA=   1.0738
  1.0738

 Free energy of the ion-electron system (eV)
  ---------------------------------------------------
  alpha Z        PSCENC =         0.85010715
  Ewald energy   TEWEN  =        55.03899630
  -Hartree energ DENC   =      -530.51303632
  -exchange      EXHF   =         0.00000000
  -V(xc)+E(xc)   XCENC  =        40.79820556
  PAW double counting   =       334.39669539     -337.58118232
  entropy T*S    EENTRO =        -0.00000000
  eigenvalues    EBANDS =      -157.31503900
  atomic energy  EATOM  =       579.39041991
  Solvation  Ediel_sol  =         0.00000000
  ---------------------------------------------------
  free energy    TOTEN  =       -14.93483332 eV

  energy without entropy =      -14.93483332  energy(sigma->0) =      -14.93483332


--------------------------------------------------------------------------------------------------------




--------------------------------------- Iteration      1(   7)  ---------------------------------------


    POTLOK:  cpu time    0.0639: real time    0.0640
    SETDIJ:  cpu time    0.0007: real time    0.0007
     EDDAV:  cpu time    0.0469: real time    0.0469
       DOS:  cpu time    0.0001: real time    0.0001
    CHARGE:  cpu time    0.0097: real time    0.0097
    MIXING:  cpu time    0.0024: real time    0.0025
    --------------------------------------------
      LOOP:  cpu time    0.1237: real time    0.1238

 eigenvalue-minimisations  :    40
 total energy-change (2. order) : 0.1396377E+00  (-0.5762171E-01)
 number of electron      10.0000103 magnetization 
 augmentation part        0.6764003 magnetization 

 Broyden mixing:
  rms(total) = 0.15877E+00    rms(broyden)= 0.15876E+00
  rms(prec ) = 0.20237E+00
  weight for this iteration     100.00

 eigenvalues of (default mixing * dielectric matrix)
  average eigenvalue GAMMA=   1.4104
  0.7812  2.0397

 Free energy of the ion-electron system (eV)
  ---------------------------------------------------
  alpha Z        PSCENC =         0.85010715
  Ewald energy   TEWEN  =        55.03899630
  -Hartree energ DENC   =      -533.11225651
  -exchange      EXHF   =         0.00000000
  -V(xc)+E(xc)   XCENC  =        40.97133627
  PAW double counting   =       354.47845284     -357.64843712
  entropy T*S    EENTRO =        -0.00000000
  eigenvalues    EBANDS =      -154.76381447
  atomic energy  EATOM  =       579.39041991
  Solvation  Ediel_sol  =         0.00000000
  ---------------------------------------------------
  free energy    TOTEN  =       -14.79519562 eV

  energy without entropy =      -14.79519562  energy(sigma->0) =      -14.79519562


--------------------------------------------------------------------------------------------------------




--------------------------------------- Iteration      1(   8)  ---------------------------------------


    POTLOK:  cpu time    0.0618: real time    0.0618
    SETDIJ:  cpu time    0.0006: real time    0.0006
     EDDAV:  cpu time    0.0371: real time    0.0371
       DOS:  cpu time    0.0001: real time    0.0001
    CHARGE:  cpu time    0.0099: real time    0.0099
    MIXING:  cpu time    0.0025: real time    0.0025
    --------------------------------------------
      LOOP:  cpu time    0.1120: real time    0.1121

 eigenvalue-minimisations  :    28
 total energy-change (2. order) : 0.3531577E-01  (-0.1238954E-01)
 number of electron      10.0000101 magnetization 
 augmentation part        0.6668670 magnetization 

 Broyden mixing:
  rms(total) = 0.40056E-01    rms(broyden)= 0.40032E-01
  rms(prec ) = 0.54100E-01
  weight for this iteration     100.00

 eigenvalues of (default mixing * dielectric matrix)
  average eigenvalue GAMMA=   1.5641
  2.3041  1.6293  0.7587

 Free energy of the ion-electron system (eV)
  ---------------------------------------------------
  alpha Z        PSCENC =         0.85010715
  Ewald energy   TEWEN  =        55.03899630
  -Hartree energ DENC   =      -537.43749322
  -exchange      EXHF   =         0.00000000
  -V(xc)+E(xc)   XCENC  =        41.23420205
  PAW double counting   =       379.85588424     -383.03637190
  entropy T*S    EENTRO =        -0.00000000
  eigenvalues    EBANDS =      -150.65562438
  atomic energy  EATOM  =       579.39041991
  Solvation  Ediel_sol  =         0.00000000
  ---------------------------------------------------
  free energy    TOTEN  =       -14.75987985 eV

  energy without entropy =      -14.75987985  energy(sigma->0) =      -14.75987985


--------------------------------------------------------------------------------------------------------




--------------------------------------- Iteration      1(   9)  ---------------------------------------


    POTLOK:  cpu time    0.0622: real time    0.0622
    SETDIJ:  cpu time    0.0006: real time    0.0006
     EDDAV:  cpu time    0.0319: real time    0.0319
       DOS:  cpu time    0.0001: real time    0.0001
    CHARGE:  cpu time    0.0097: real time    0.0097
    MIXING:  cpu time    0.0026: real time    0.0026
    --------------------------------------------
      LOOP:  cpu time    0.1071: real time    0.1071

 eigenvalue-minimisations  :    24
 total energy-change (2. order) : 0.9467438E-03  (-0.6813943E-03)
 number of electron      10.0000101 magnetization 
 augmentation part        0.6648252 magnetization 

 Broyden mixing:
  rms(total) = 0.90817E-02    rms(broyden)= 0.90705E-02
  rms(prec ) = 0.17583E-01
  weight for this iteration     100.00

 eigenvalues of (default mixing * dielectric matrix)
  average eigenvalue GAMMA=   1.5063
  2.4067  0.7711  1.0900  1.7574

 Free energy of the ion-electron system (eV)
  ---------------------------------------------------
  alpha Z        PSCENC =         0.85010715
  Ewald energy   TEWEN  =        55.03899630
  -Hartree energ DENC   =      -537.49356762
  -exchange      EXHF   =         0.00000000
  -V(xc)+E(xc)   XCENC  =        41.23635487
  PAW double counting   =       384.67448641     -387.82746346
  entropy T*S    EENTRO =        -0.00000000
  eigenvalues    EBANDS =      -150.62826667
  atomic energy  EATOM  =       579.39041991
  Solvation  Ediel_sol  =         0.00000000
  ---------------------------------------------------
  free energy    TOTEN  =       -14.75893311 eV

  energy without entropy =      -14.75893311  energy(sigma->0) =      -14.75893311


--------------------------------------------------------------------------------------------------------




--------------------------------------- Iteration      1(  10)  ---------------------------------------


    POTLOK:  cpu time    0.0614: real time    0.0614
    SETDIJ:  cpu time    0.0007: real time    0.0007
     EDDAV:  cpu time    0.0329: real time    0.0329
       DOS:  cpu time    0.0001: real time    0.0001
    CHARGE:  cpu time    0.0100: real time    0.0100
    MIXING:  cpu time    0.0027: real time    0.0027
    --------------------------------------------
      LOOP:  cpu time    0.1078: real time    0.1078

 eigenvalue-minimisations  :    24
 total energy-change (2. order) :-0.1038866E-02  (-0.1085192E-03)
 number of electron      10.0000101 magnetization 
 augmentation part        0.6659446 magnetization 

 Broyden mixing:
  rms(total) = 0.36349E-02    rms(broyden)= 0.36307E-02
  rms(prec ) = 0.10060E-01
  weight for this iteration     100.00

 eigenvalues of (default mixing * dielectric matrix)
  average eigenvalue GAMMA=   1.6371
  0.7754  0.9772  2.4737  2.2740  1.6854

 Free energy of the ion-electron system (eV)
  ---------------------------------------------------
  alpha Z        PSCENC =         0.85010715
  Ewald energy   TEWEN  =        55.03899630
  -Hartree energ DENC   =      -537.49988685
  -exchange      EXHF   =         0.00000000
  -V(xc)+E(xc)   XCENC  =        41.23400813
  PAW double counting   =       384.93133239     -388.07415738
  entropy T*S    EENTRO =        -0.00000000
  eigenvalues    EBANDS =      -150.63079162
  atomic energy  EATOM  =       579.39041991
  Solvation  Ediel_sol  =         0.00000000
  ---------------------------------------------------
  free energy    TOTEN  =       -14.75997198 eV

  energy without entropy =      -14.75997198  energy(sigma->0) =      -14.75997198


--------------------------------------------------------------------------------------------------------




--------------------------------------- Iteration      1(  11)  ---------------------------------------


    POTLOK:  cpu time    0.0615: real time    0.0615
    SETDIJ:  cpu time    0.0006: real time    0.0006
     EDDAV:  cpu time    0.0320: real time    0.0320
       DOS:  cpu time    0.0001: real time    0.0001
    CHARGE:  cpu time    0.0097: real time    0.0097
    MIXING:  cpu time    0.0028: real time    0.0028
    --------------------------------------------
      LOOP:  cpu time    0.1068: real time    0.1068

 eigenvalue-minimisations  :    24
 total energy-change (2. order) :-0.2370518E-02  (-0.6254490E-04)
 number of electron      10.0000101 magnetization 
 augmentation part        0.6657413 magnetization 

 Broyden mixing:
  rms(total) = 0.19000E-02    rms(broyden)= 0.18996E-02
  rms(prec ) = 0.40918E-02
  weight for this iteration     100.00

 eigenvalues of (default mixing * dielectric matrix)
  average eigenvalue GAMMA=   1.6849
  3.2488  2.4210  1.6274  0.7736  0.9311  1.1074

 Free energy of the ion-electron system (eV)
  ---------------------------------------------------
  alpha Z        PSCENC =         0.85010715
  Ewald energy   TEWEN  =        55.03899630
  -Hartree energ DENC   =      -537.89596022
  -exchange      EXHF   =         0.00000000
  -V(xc)+E(xc)   XCENC  =        41.24939079
  PAW double counting   =       384.85362675     -387.99116616
  entropy T*S    EENTRO =        -0.00000000
  eigenvalues    EBANDS =      -150.25775702
  atomic energy  EATOM  =       579.39041991
  Solvation  Ediel_sol  =         0.00000000
  ---------------------------------------------------
  free energy    TOTEN  =       -14.76234249 eV

  energy without entropy =      -14.76234249  energy(sigma->0) =      -14.76234249


--------------------------------------------------------------------------------------------------------




--------------------------------------- Iteration      1(  12)  ---------------------------------------


    POTLOK:  cpu time    0.0612: real time    0.0612
    SETDIJ:  cpu time    0.0007: real time    0.0007
     EDDAV:  cpu time    0.0391: real time    0.0391
       DOS:  cpu time    0.0001: real time    0.0001
    CHARGE:  cpu time    0.0097: real time    0.0097
    MIXING:  cpu time    0.0028: real time    0.0028
    --------------------------------------------
      LOOP:  cpu time    0.1136: real time    0.1136

 eigenvalue-minimisations  :    32
 total energy-change (2. order) :-0.6116910E-03  (-0.6668211E-05)
 number of electron      10.0000101 magnetization 
 augmentation part        0.6655861 magnetization 

 Broyden mixing:
  rms(total) = 0.11143E-02    rms(broyden)= 0.11140E-02
  rms(prec ) = 0.24859E-02
  weight for this iteration     100.00

 eigenvalues of (default mixing * dielectric matrix)
  average eigenvalue GAMMA=   1.9902
  4.5351  2.5765  2.3519  1.6718  0.7731  0.9751  1.0479

 Free energy of the ion-electron system (eV)
  ---------------------------------------------------
  alpha Z        PSCENC =         0.85010715
  Ewald energy   TEWEN  =        55.03899630
  -Hartree energ DENC   =      -537.90052456
  -exchange      EXHF   =         0.00000000
  -V(xc)+E(xc)   XCENC  =        41.24777320
  PAW double counting   =       384.67568827     -387.81350825
  entropy T*S    EENTRO =        -0.00000000
  eigenvalues    EBANDS =      -150.25190619
  atomic energy  EATOM  =       579.39041991
  Solvation  Ediel_sol  =         0.00000000
  ---------------------------------------------------
  free energy    TOTEN  =       -14.76295418 eV

  energy without entropy =      -14.76295418  energy(sigma->0) =      -14.76295418


--------------------------------------------------------------------------------------------------------




--------------------------------------- Iteration      1(  13)  ---------------------------------------


    POTLOK:  cpu time    0.0609: real time    0.0609
    SETDIJ:  cpu time    0.0006: real time    0.0006
     EDDAV:  cpu time    0.0390: real time    0.0390
       DOS:  cpu time    0.0001: real time    0.0001
    CHARGE:  cpu time    0.0097: real time    0.0097
    MIXING:  cpu time    0.0029: real time    0.0029
    --------------------------------------------
      LOOP:  cpu time    0.1132: real time    0.1133

 eigenvalue-minimisations  :    32
 total energy-change (2. order) :-0.8789797E-03  (-0.1328304E-04)
 number of electron      10.0000101 magnetization 
 augmentation part        0.6656204 magnetization 

 Broyden mixing:
  rms(total) = 0.39073E-03    rms(broyden)= 0.39065E-03
  rms(prec ) = 0.76989E-03
  weight for this iteration     100.00

 eigenvalues of (default mixing * dielectric matrix)
  average eigenvalue GAMMA=   2.0566
  5.4942  2.8218  2.4119  0.7732  1.5491  0.9722  1.0515  1.3790

 Free energy of the ion-electron system (eV)
  ---------------------------------------------------
  alpha Z        PSCENC =         0.85010715
  Ewald energy   TEWEN  =        55.03899630
  -Hartree energ DENC   =      -537.89254827
  -exchange      EXHF   =         0.00000000
  -V(xc)+E(xc)   XCENC  =        41.24546235
  PAW double counting   =       384.60713765     -387.74757486
  entropy T*S    EENTRO =        -0.00000000
  eigenvalues    EBANDS =      -150.25583339
  atomic energy  EATOM  =       579.39041991
  Solvation  Ediel_sol  =         0.00000000
  ---------------------------------------------------
  free energy    TOTEN  =       -14.76383316 eV

  energy without entropy =      -14.76383316  energy(sigma->0) =      -14.76383316


--------------------------------------------------------------------------------------------------------




--------------------------------------- Iteration      1(  14)  ---------------------------------------


    POTLOK:  cpu time    0.0612: real time    0.0612
    SETDIJ:  cpu time    0.0007: real time    0.0006
     EDDAV:  cpu time    0.0392: real time    0.0392
       DOS:  cpu time    0.0001: real time    0.0001
    CHARGE:  cpu time    0.0097: real time    0.0097
    MIXING:  cpu time    0.0030: real time    0.0030
    --------------------------------------------
      LOOP:  cpu time    0.1139: real time    0.1138

 eigenvalue-minimisations  :    32
 total energy-change (2. order) :-0.1519991E-03  (-0.1128786E-05)
 number of electron      10.0000101 magnetization 
 augmentation part        0.6656203 magnetization 

 Broyden mixing:
  rms(total) = 0.24414E-03    rms(broyden)= 0.24408E-03
  rms(prec ) = 0.44150E-03
  weight for this iteration     100.00

 eigenvalues of (default mixing * dielectric matrix)
  average eigenvalue GAMMA=   2.2220
  6.1559  3.4390  2.5318  2.4305  1.6285  0.7732  0.9792  0.9792  1.0803

 Free energy of the ion-electron system (eV)
  ---------------------------------------------------
  alpha Z        PSCENC =         0.85010715
  Ewald energy   TEWEN  =        55.03899630
  -Hartree energ DENC   =      -537.90089140
  -exchange      EXHF   =         0.00000000
  -V(xc)+E(xc)   XCENC  =        41.24583069
  PAW double counting   =       384.65180205     -387.79236883
  entropy T*S    EENTRO =        -0.00000000
  eigenvalues    EBANDS =      -150.24788103
  atomic energy  EATOM  =       579.39041991
  Solvation  Ediel_sol  =         0.00000000
  ---------------------------------------------------
  free energy    TOTEN  =       -14.76398516 eV

  energy without entropy =      -14.76398516  energy(sigma->0) =      -14.76398516


--------------------------------------------------------------------------------------------------------




--------------------------------------- Iteration      1(  15)  ---------------------------------------


    POTLOK:  cpu time    0.0614: real time    0.0615
    SETDIJ:  cpu time    0.0006: real time    0.0006
     EDDAV:  cpu time    0.0354: real time    0.0354
       DOS:  cpu time    0.0001: real time    0.0001
    --------------------------------------------
      LOOP:  cpu time    0.0975: real time    0.0976

 eigenvalue-minimisations  :    28
 total energy-change (2. order) :-0.7703261E-04  (-0.6148359E-06)
 number of electron      10.0000101 magnetization 
 augmentation part        0.6656203 magnetization 

 Free energy of the ion-electron system (eV)
  ---------------------------------------------------
  alpha Z        PSCENC =         0.85010715
  Ewald energy   TEWEN  =        55.03899630
  -Hartree energ DENC   =      -537.88851883
  -exchange      EXHF   =         0.00000000
  -V(xc)+E(xc)   XCENC  =        41.24514291
  PAW double counting   =       384.66219832     -387.80210575
  entropy T*S    EENTRO =        -0.00000000
  eigenvalues    EBANDS =      -150.26030220
  atomic energy  EATOM  =       579.39041991
  Solvation  Ediel_sol  =         0.00000000
  ---------------------------------------------------
  free energy    TOTEN  =       -14.76406220 eV

  energy without entropy =      -14.76406220  energy(sigma->0) =      -14.76406220


--------------------------------------------------------------------------------------------------------




 average (electrostatic) potential at core
  the test charge radii are     0.7215  0.6991
  (the norm of the test charge is              1.0000)
       1 -83.4010       2 -61.3032



 E-fermi :  -7.6913     XC(G=0):  -1.1669     alpha+bet : -0.3423


 k-point     1 :       0.0000    0.0000    0.0000
  band No.  band energies     occupation 
      1     -29.3295      2.00000
      2     -13.7471      2.00000
      3     -11.6697      2.00000
      4     -11.6697      2.00000
      5      -8.7141      2.00000
      6      -1.6279      0.00000
      7      -1.6279      0.00000
      8      -0.2401      0.00000
      9       1.7219      0.00000
     10       1.8812      0.00000
     11       1.8812      0.00000
     12       1.9501      0.00000


--------------------------------------------------------------------------------------------------------


 soft charge-density along one line, spin component           1
         0         1         2         3         4         5         6         7         8         9
 total charge-density along one line

 pseudopotential strength for first ion, spin component:           1
 14.208  -0.593   0.000  -0.157  -0.000  -0.000   0.009   0.000
 -0.593   0.133  -0.000   0.017   0.000   0.000  -0.003   0.000
  0.000  -0.000 -11.012  -0.000   0.000   0.415   0.000  -0.000
 -0.157   0.017  -0.000 -11.177   0.000   0.000   0.437  -0.000
 -0.000   0.000   0.000   0.000 -11.012  -0.000  -0.000   0.415
 -0.000   0.000   0.415   0.000  -0.000   0.088  -0.000   0.000
  0.009  -0.003   0.000   0.437  -0.000  -0.000   0.083   0.000
  0.000   0.000  -0.000  -0.000   0.415   0.000   0.000   0.088
 total augmentation occupancy for first ion, spin component:           1
  1.947   0.187  -0.000  -0.078   0.000   0.000   0.093  -0.000
  0.187   0.068   0.000   0.207   0.000   0.000   0.063  -0.000
 -0.000   0.000   1.466   0.000   0.000   0.146  -0.000  -0.000
 -0.078   0.207   0.000   1.816   0.000   0.000   0.279  -0.000
  0.000   0.000   0.000   0.000   1.466   0.000   0.000   0.146
  0.000   0.000   0.146   0.000   0.000   0.015   0.000   0.000
  0.093   0.063  -0.000   0.279   0.000   0.000   0.065  -0.000
 -0.000   0.000  -0.000  -0.000   0.146   0.000  -0.000   0.015


------------------------ aborting loop because EDIFF is reached ----------------------------------------


    CHARGE:  cpu time    0.0128: real time    0.0188
    FORLOC:  cpu time    0.0041: real time    0.0041
    FORNL :  cpu time    0.0041: real time    0.0041
    STRESS:  cpu time    0.0536: real time    0.0536
    FORHAR:  cpu time    0.0197: real time    0.0197
    MIXING:  cpu time    0.0033: real time    0.0033
    OFIELD:  cpu time    0.0000: real time    0.0000

  FORCE on cell =-STRESS in cart. coord.  units (eV):
  Direction    XX          YY          ZZ          XY          YZ          ZX
  --------------------------------------------------------------------------------------
  Alpha Z     0.85011     0.85011     0.85011
  Ewald     -85.97175   -85.97175   226.98245    -0.00000    -0.00000     0.00000
  Hartree   142.41333   142.41333   253.05661    -0.00000    -0.00000    -0.00000
  E(xc)     -43.93133   -43.93133   -42.74413     0.00000     0.00000     0.00000
  Local    -193.38351  -193.38351  -587.29035    -0.00000     0.00000    -0.00000
  n-local   -18.75398   -18.75398   -30.41046     0.00000    -0.00000     0.00000
  augment     6.26436     6.26436     5.60296    -0.00000     0.00000    -0.00000
  Kinetic   191.74327   191.74327   176.45294    -0.00000     0.00000    -0.00000
  Fock        0.00000     0.00000     0.00000     0.00000     0.00000     0.00000
  -------------------------------------------------------------------------------------
  Total      -0.76950    -0.76950     2.50014     0.00000     0.00000     0.00000
  in kB      -2.40795    -2.40795     7.82357     0.00000     0.00000     0.00000
  external pressure =        1.00 kB  Pullay stress =        0.00 kB


 VOLUME and BASIS-vectors are now :
 -----------------------------------------------------------------------------
  energy-cutoff  :      400.00
  volume of cell :      512.00
      direct lattice vectors                 reciprocal lattice vectors
     8.000000000  0.000000000  0.000000000     0.125000000  0.000000000  0.000000000
     0.000000000  8.000000000  0.000000000     0.000000000  0.125000000  0.000000000
     0.000000000  0.000000000  8.000000000     0.000000000  0.000000000  0.125000000

  length of vectors
     8.000000000  8.000000000  8.000000000     0.125000000  0.125000000  0.125000000


 FORCES acting on ions
    electron-ion (+dipol)            ewald-force                    non-local-force                 convergence-correction
 -----------------------------------------------------------------------------------------------
   -.494E-14 -.959E-13 0.208E+03   -.685E-17 0.600E-16 -.272E+03   0.331E-23 -.331E-23 0.612E+02   -.279E-13 -.230E-13 0.277E-02
   0.475E-15 0.163E-12 -.241E+03   -.383E-16 -.125E-16 0.272E+03   0.000E+00 0.000E+00 -.281E+02   0.324E-14 -.260E-14 -.621E-03
 -----------------------------------------------------------------------------------------------
   -.447E-14 0.675E-13 -.331E+02   -.451E-16 0.475E-16 0.000E+00   0.331E-23 -.331E-23 0.331E+02   -.247E-13 -.256E-13 0.215E-02


 POSITION                                       TOTAL-FORCE (eV/Angst)
 -----------------------------------------------------------------------------------
      0.00000      0.00000      0.00000         0.000000      0.000000     -2.915131
      0.00000      0.00000      1.12000         0.000000      0.000000      2.915131
 -----------------------------------------------------------------------------------
    total drift:                               -0.000000      0.000000     -0.000499


--------------------------------------------------------------------------------------------------------



  FREE ENERGIE OF THE ION-ELECTRON SYSTEM (eV)
  ---------------------------------------------------
  free  energy   TOTEN  =       -14.76406220 eV

  energy  without entropy=      -14.76406220  energy(sigma->0) =      -14.76406220



--------------------------------------------------------------------------------------------------------


    POTLOK:  cpu time    0.0608: real time    0.0608


--------------------------------------------------------------------------------------------------------




--------------------------------------------------------------------------------------------------------


    WAVPRE:  cpu time    0.3599: real time    0.3600
    FEWALD:  cpu time    0.0001: real time    0.0001
    ORTHCH:  cpu time    0.0017: real time    0.0017
     LOOP+:  cpu time    1.9718: real time    1.9791


--------------------------------------- Iteration      2(   1)  ---------------------------------------


    POTLOK:  cpu time    0.0614: real time    0.0614
    SETDIJ:  cpu time    0.0007: real time    0.0007
     EDDAV:  cpu time    0.0328: real time    0.0328
       DOS:  cpu time    0.0002: real time    0.0002
    CHARGE:  cpu time    0.0100: real time    0.0100
    MIXING:  cpu time    0.0023: real time    0.0023
    --------------------------------------------
      LOOP:  cpu time    0.1074: real time    0.1074

 eigenvalue-minimisations  :    24
 total energy-change (2. order) : 0.1884641E+01  (-0.1909134E+02)
 number of electron      10.0000024 magnetization 
 augmentation part        0.5626047 magnetization 

 Broyden mixing:
  rms(total) = 0.41903E+00    rms(broyden)= 0.41826E+00
  rms(prec ) = 0.60584E+00
  weight for this iteration     100.00

 Free energy of the ion-electron system (eV)
  ---------------------------------------------------
  alpha Z        PSCENC =         0.85010715
  Ewald energy   TEWEN  =        -5.81966587
  -Hartree energ DENC   =      -497.79689482
  -exchange      EXHF   =         0.00000000
  -V(xc)+E(xc)   XCENC  =        40.15465475
  PAW double counting   =       384.65584720     -387.79577198
  entropy T*S    EENTRO =        -0.00000000
  eigenvalues    EBANDS =      -126.51804002
  atomic energy  EATOM  =       579.39041991
  Solvation  Ediel_sol  =         0.00000000
  ---------------------------------------------------
  free energy    TOTEN  =       -12.87934368 eV

  energy without entropy =      -12.87934368  energy(sigma->0) =      -12.87934368


--------------------------------------------------------------------------------------------------------




--------------------------------------- Iteration      2(   2)  ---------------------------------------


    POTLOK:  cpu time    0.0570: real time    0.0570
    SETDIJ:  cpu time    0.0007: real time    0.0007
     EDDAV:  cpu time    0.0318: real time    0.0318
       DOS:  cpu time    0.0001: real time    0.0001
    CHARGE:  cpu time    0.0099: real time    0.0099
    MIXING:  cpu time    0.0024: real time    0.0024
    --------------------------------------------
      LOOP:  cpu time    0.1018: real time    0.1018

 eigenvalue-minimisations  :    24
 total energy-change (2. order) : 0.1693058E+00  (-0.4244324E+00)
 number of electron      10.0000021 magnetization 
 augmentation part        0.5238890 magnetization 

 Broyden mixing:
  rms(total) = 0.21877E+00    rms(broyden)= 0.21865E+00
  rms(prec ) = 0.28676E+00
  weight for this iteration     100.00

 eigenvalues of (default mixing * dielectric matrix)
  average eigenvalue GAMMA=   1.0808
  1.0808

 Free energy of the ion-electron system (eV)
  ---------------------------------------------------
  alpha Z        PSCENC =         0.85010715
  Ewald energy   TEWEN  =        -5.81966587
  -Hartree energ DENC   =      -492.61055011
  -exchange      EXHF   =         0.00000000
  -V(xc)+E(xc)   XCENC  =        39.77064707
  PAW double counting   =       358.51718059     -361.55070307
  entropy T*S    EENTRO =        -0.00000000
  eigenvalues    EBANDS =      -131.25747351
  atomic energy  EATOM  =       579.39041991
  Solvation  Ediel_sol  =         0.00000000
  ---------------------------------------------------
  free energy    TOTEN  =       -12.71003784 eV

  energy without entropy =      -12.71003784  energy(sigma->0) =      -12.71003784


--------------------------------------------------------------------------------------------------------




--------------------------------------- Iteration      2(   3)  ---------------------------------------


    POTLOK:  cpu time    0.0568: real time    0.0568
    SETDIJ:  cpu time    0.0006: real time    0.0006
     EDDAV:  cpu time    0.0391: real time    0.0391
       DOS:  cpu time    0.0001: real time    0.0001
    CHARGE:  cpu time    0.0098: real time    0.0098
    MIXING:  cpu time    0.0024: real time    0.0024
    --------------------------------------------
      LOOP:  cpu time    0.1089: real time    0.1089

 eigenvalue-minimisations  :    32
 total energy-change (2. order) : 0.3167797E-01  (-0.7500049E-01)
 number of electron      10.0000027 magnetization 
 augmentation part        0.5657958 magnetization 

 Broyden mixing:
  rms(total) = 0.12795E+00    rms(broyden)= 0.12776E+00
  rms(prec ) = 0.19529E+00
  weight for this iteration     100.00

 eigenvalues of (default mixing * dielectric matrix)
  average eigenvalue GAMMA=   1.0270
  1.4834  0.5707

 Free energy of the ion-electron system (eV)
  ---------------------------------------------------
  alpha Z        PSCENC =         0.85010715
  Ewald energy   TEWEN  =        -5.81966587
  -Hartree energ DENC   =      -488.06631945
  -exchange      EXHF   =         0.00000000
  -V(xc)+E(xc)   XCENC  =        39.50779553
  PAW double counting   =       338.91095842     -341.83046011
  entropy T*S    EENTRO =        -0.00000000
  eigenvalues    EBANDS =      -135.62119544
  atomic energy  EATOM  =       579.39041991
  Solvation  Ediel_sol  =         0.00000000
  ---------------------------------------------------
  free energy    TOTEN  =       -12.67835988 eV

  energy without entropy =      -12.67835988  energy(sigma->0) =      -12.67835988


--------------------------------------------------------------------------------------------------------




--------------------------------------- Iteration      2(   4)  ---------------------------------------


    POTLOK:  cpu time    0.0576: real time    0.0576
    SETDIJ:  cpu time    0.0007: real time    0.0007
     EDDAV:  cpu time    0.0397: real time    0.0397
       DOS:  cpu time    0.0001: real time    0.0001
    CHARGE:  cpu time    0.0098: real time    0.0098
    MIXING:  cpu time    0.0025: real time    0.0025
    --------------------------------------------
      LOOP:  cpu time    0.1104: real time    0.1104

 eigenvalue-minimisations  :    32
 total energy-change (2. order) : 0.2540139E-01  (-0.2374109E-01)
 number of electron      10.0000024 magnetization 
 augmentation part        0.5465809 magnetization 

 Broyden mixing:
  rms(total) = 0.47572E-01    rms(broyden)= 0.47529E-01
  rms(prec ) = 0.59868E-01
  weight for this iteration     100.00

 eigenvalues of (default mixing * dielectric matrix)
  average eigenvalue GAMMA=   1.2505
  2.0611  1.1777  0.5127

 Free energy of the ion-electron system (eV)
  ---------------------------------------------------
  alpha Z        PSCENC =         0.85010715
  Ewald energy   TEWEN  =        -5.81966587
  -Hartree energ DENC   =      -487.94769918
  -exchange      EXHF   =         0.00000000
  -V(xc)+E(xc)   XCENC  =        39.49025186
  PAW double counting   =       330.79327113     -333.68369124
  entropy T*S    EENTRO =        -0.00000000
  eigenvalues    EBANDS =      -135.72595225
  atomic energy  EATOM  =       579.39041991
  Solvation  Ediel_sol  =         0.00000000
  ---------------------------------------------------
  free energy    TOTEN  =       -12.65295849 eV

  energy without entropy =      -12.65295849  energy(sigma->0) =      -12.65295849


--------------------------------------------------------------------------------------------------------




--------------------------------------- Iteration      2(   5)  ---------------------------------------


    POTLOK:  cpu time    0.0583: real time    0.0583
    SETDIJ:  cpu time    0.0007: real time    0.0007
     EDDAV:  cpu time    0.0355: real time    0.0355
       DOS:  cpu time    0.0001: real time    0.0001
    CHARGE:  cpu time    0.0098: real time    0.0098
    MIXING:  cpu time    0.0026: real time    0.0026
    --------------------------------------------
      LOOP:  cpu time    0.1069: real time    0.1069

 eigenvalue-minimisations  :    28
 total energy-change (2. order) :-0.3789003E-02  (-0.1118910E-02)
 number of electron      10.0000024 magnetization 
 augmentation part        0.5494760 magnetization 

 Broyden mixing:
  rms(total) = 0.14469E-01    rms(broyden)= 0.14467E-01
  rms(prec ) = 0.22603E-01
  weight for this iteration     100.00

 eigenvalues of (default mixing * dielectric matrix)
  average eigenvalue GAMMA=   1.4361
  2.5227  1.6375  1.0756  0.5087

 Free energy of the ion-electron system (eV)
  ---------------------------------------------------
  alpha Z        PSCENC =         0.85010715
  Ewald energy   TEWEN  =        -5.81966587
  -Hartree energ DENC   =      -487.51937147
  -exchange      EXHF   =         0.00000000
  -V(xc)+E(xc)   XCENC  =        39.46451401
  PAW double counting   =       323.60888801     -326.47688749
  entropy T*S    EENTRO =        -0.00000000
  eigenvalues    EBANDS =      -136.15475174
  atomic energy  EATOM  =       579.39041991
  Solvation  Ediel_sol  =         0.00000000
  ---------------------------------------------------
  free energy    TOTEN  =       -12.65674749 eV

  energy without entropy =      -12.65674749  energy(sigma->0) =      -12.65674749


--------------------------------------------------------------------------------------------------------




--------------------------------------- Iteration      2(   6)  ---------------------------------------


    POTLOK:  cpu time    0.0588: real time    0.0588
    SETDIJ:  cpu time    0.0006: real time    0.0006
     EDDAV:  cpu time    0.0317: real time    0.0317
       DOS:  cpu time    0.0001: real time    0.0001
    CHARGE:  cpu time    0.0099: real time    0.0099
    MIXING:  cpu time    0.0027: real time    0.0027
    --------------------------------------------
      LOOP:  cpu time    0.1038: real time    0.1038

 eigenvalue-minimisations  :    24
 total energy-change (2. order) :-0.1582816E-02  (-0.8678419E-04)
 number of electron      10.0000024 magnetization 
 augmentation part        0.5493691 magnetization 

 Broyden mixing:
  rms(total) = 0.33767E-02    rms(broyden)= 0.33724E-02
  rms(prec ) = 0.92753E-02
  weight for this iteration     100.00

 eigenvalues of (default mixing * dielectric matrix)
  average eigenvalue GAMMA=   1.4307
  2.5983  0.5084  1.7687  1.2742  1.0039

 Free energy of the ion-electron system (eV)
  ---------------------------------------------------
  alpha Z        PSCENC =         0.85010715
  Ewald energy   TEWEN  =        -5.81966587
  -Hartree energ DENC   =      -487.66341571
  -exchange      EXHF   =         0.00000000
  -V(xc)+E(xc)   XCENC  =        39.46944470
  PAW double counting   =       320.95350220     -323.81633188
  entropy T*S    EENTRO =        -0.00000000
  eigenvalues    EBANDS =      -136.02239081
  atomic energy  EATOM  =       579.39041991
  Solvation  Ediel_sol  =         0.00000000
  ---------------------------------------------------
  free energy    TOTEN  =       -12.65833031 eV

  energy without entropy =      -12.65833031  energy(sigma->0) =      -12.65833031


--------------------------------------------------------------------------------------------------------




--------------------------------------- Iteration      2(   7)  ---------------------------------------


    POTLOK:  cpu time    0.0593: real time    0.0593
    SETDIJ:  cpu time    0.0007: real time    0.0007
     EDDAV:  cpu time    0.0326: real time    0.0326
       DOS:  cpu time    0.0001: real time    0.0001
    CHARGE:  cpu time    0.0099: real time    0.0099
    MIXING:  cpu time    0.0028: real time    0.0028
    --------------------------------------------
      LOOP:  cpu time    0.1054: real time    0.1054

 eigenvalue-minimisations  :    24
 total energy-change (2. order) :-0.9763196E-03  (-0.3596010E-04)
 number of electron      10.0000024 magnetization 
 augmentation part        0.5487591 magnetization 

 Broyden mixing:
  rms(total) = 0.24940E-02    rms(broyden)= 0.24898E-02
  rms(prec ) = 0.58917E-02
  weight for this iteration     100.00

 eigenvalues of (default mixing * dielectric matrix)
  average eigenvalue GAMMA=   1.5930
  2.9237  2.4125  0.5087  1.6251  0.9682  1.1197

 Free energy of the ion-electron system (eV)
  ---------------------------------------------------
  alpha Z        PSCENC =         0.85010715
  Ewald energy   TEWEN  =        -5.81966587
  -Hartree energ DENC   =      -487.66024775
  -exchange      EXHF   =         0.00000000
  -V(xc)+E(xc)   XCENC  =        39.46718163
  PAW double counting   =       321.04987805     -323.91405481
  entropy T*S    EENTRO =        -0.00000000
  eigenvalues    EBANDS =      -136.02292493
  atomic energy  EATOM  =       579.39041991
  Solvation  Ediel_sol  =         0.00000000
  ---------------------------------------------------
  free energy    TOTEN  =       -12.65930663 eV

  energy without entropy =      -12.65930663  energy(sigma->0) =      -12.65930663


--------------------------------------------------------------------------------------------------------




--------------------------------------- Iteration      2(   8)  ---------------------------------------


    POTLOK:  cpu time    0.0594: real time    0.0594
    SETDIJ:  cpu time    0.0007: real time    0.0007
     EDDAV:  cpu time    0.0317: real time    0.0317
       DOS:  cpu time    0.0001: real time    0.0001
    CHARGE:  cpu time    0.0096: real time    0.0096
    MIXING:  cpu time    0.0029: real time    0.0029
    --------------------------------------------
      LOOP:  cpu time    0.1044: real time    0.1044

 eigenvalue-minimisations  :    24
 total energy-change (2. order) :-0.1010411E-02  (-0.2826763E-04)
 number of electron      10.0000024 magnetization 
 augmentation part        0.5492084 magnetization 

 Broyden mixing:
  rms(total) = 0.17094E-02    rms(broyden)= 0.17079E-02
  rms(prec ) = 0.28431E-02
  weight for this iteration     100.00

 eigenvalues of (default mixing * dielectric matrix)
  average eigenvalue GAMMA=   1.6929
  3.5268  2.5573  0.5087  1.7376  1.5273  0.9963  0.9963

 Free energy of the ion-electron system (eV)
  ---------------------------------------------------
  alpha Z        PSCENC =         0.85010715
  Ewald energy   TEWEN  =        -5.81966587
  -Hartree energ DENC   =      -487.52749967
  -exchange      EXHF   =         0.00000000
  -V(xc)+E(xc)   XCENC  =        39.45849812
  PAW double counting   =       321.08016847     -323.94457465
  entropy T*S    EENTRO =        -0.00000000
  eigenvalues    EBANDS =      -136.14777050
  atomic energy  EATOM  =       579.39041991
  Solvation  Ediel_sol  =         0.00000000
  ---------------------------------------------------
  free energy    TOTEN  =       -12.66031704 eV

  energy without entropy =      -12.66031704  energy(sigma->0) =      -12.66031704


--------------------------------------------------------------------------------------------------------




--------------------------------------- Iteration      2(   9)  ---------------------------------------


    POTLOK:  cpu time    0.0603: real time    0.0603
    SETDIJ:  cpu time    0.0007: real time    0.0007
     EDDAV:  cpu time    0.0319: real time    0.0319
       DOS:  cpu time    0.0001: real time    0.0001
    CHARGE:  cpu time    0.0098: real time    0.0098
    MIXING:  cpu time    0.0029: real time    0.0029
    --------------------------------------------
      LOOP:  cpu time    0.1056: real time    0.1056

 eigenvalue-minimisations  :    24
 total energy-change (2. order) :-0.2696348E-03  (-0.4522661E-05)
 number of electron      10.0000024 magnetization 
 augmentation part        0.5489967 magnetization 

 Broyden mixing:
  rms(total) = 0.43877E-03    rms(broyden)= 0.43818E-03
  rms(prec ) = 0.91911E-03
  weight for this iteration     100.00

 eigenvalues of (default mixing * dielectric matrix)
  average eigenvalue GAMMA=   1.9039
  4.9859  2.6120  2.2057  0.5087  1.6719  1.0005  1.0005  1.2460

 Free energy of the ion-electron system (eV)
  ---------------------------------------------------
  alpha Z        PSCENC =         0.85010715
  Ewald energy   TEWEN  =        -5.81966587
  -Hartree energ DENC   =      -487.53455632
  -exchange      EXHF   =         0.00000000
  -V(xc)+E(xc)   XCENC  =        39.45957306
  PAW double counting   =       321.17663723     -324.04132666
  entropy T*S    EENTRO =        -0.00000000
  eigenvalues    EBANDS =      -136.14177516
  atomic energy  EATOM  =       579.39041991
  Solvation  Ediel_sol  =         0.00000000
  ---------------------------------------------------
  free energy    TOTEN  =       -12.66058668 eV

  energy without entropy =      -12.66058668  energy(sigma->0) =      -12.66058668


--------------------------------------------------------------------------------------------------------




--------------------------------------- Iteration      2(  10)  ---------------------------------------


    POTLOK:  cpu time    0.0604: real time    0.0604
    SETDIJ:  cpu time    0.0006: real time    0.0006
     EDDAV:  cpu time    0.0319: real time    0.0319
       DOS:  cpu time    0.0001: real time    0.0001
    CHARGE:  cpu time    0.0097: real time    0.0097
    MIXING:  cpu time    0.0030: real time    0.0030
    --------------------------------------------
      LOOP:  cpu time    0.1058: real time    0.1058

 eigenvalue-minimisations  :    24
 total energy-change (2. order) :-0.1161425E-03  (-0.1175588E-05)
 number of electron      10.0000024 magnetization 
 augmentation part        0.5489635 magnetization 

 Broyden mixing:
  rms(total) = 0.31964E-03    rms(broyden)= 0.31938E-03
  rms(prec ) = 0.50626E-03
  weight for this iteration     100.00

 eigenvalues of (default mixing * dielectric matrix)
  average eigenvalue GAMMA=   2.0031
  5.7047  2.9690  2.4524  0.5087  1.7675  1.5953  0.9704  1.0299  1.0299

 Free energy of the ion-electron system (eV)
  ---------------------------------------------------
  alpha Z        PSCENC =         0.85010715
  Ewald energy   TEWEN  =        -5.81966587
  -Hartree energ DENC   =      -487.54216646
  -exchange      EXHF   =         0.00000000
  -V(xc)+E(xc)   XCENC  =        39.46028651
  PAW double counting   =       321.17326818     -324.03756412
  entropy T*S    EENTRO =        -0.00000000
  eigenvalues    EBANDS =      -136.13538812
  atomic energy  EATOM  =       579.39041991
  Solvation  Ediel_sol  =         0.00000000
  ---------------------------------------------------
  free energy    TOTEN  =       -12.66070282 eV

  energy without entropy =      -12.66070282  energy(sigma->0) =      -12.66070282


--------------------------------------------------------------------------------------------------------




--------------------------------------- Iteration      2(  11)  ---------------------------------------


    POTLOK:  cpu time    0.0618: real time    0.0618
    SETDIJ:  cpu time    0.0006: real time    0.0006
     EDDAV:  cpu time    0.0356: real time    0.0356
       DOS:  cpu time    0.0001: real time    0.0001
    --------------------------------------------
      LOOP:  cpu time    0.0981: real time    0.0981

 eigenvalue-minimisations  :    28
 total energy-change (2. order) :-0.3629308E-04  (-0.3349407E-06)
 number of electron      10.0000024 magnetization 
 augmentation part        0.5489635 magnetization 

 Free energy of the ion-electron system (eV)
  ---------------------------------------------------
  alpha Z        PSCENC =         0.85010715
  Ewald energy   TEWEN  =        -5.81966587
  -Hartree energ DENC   =      -487.53923229
  -exchange      EXHF   =         0.00000000
  -V(xc)+E(xc)   XCENC  =        39.46001522
  PAW double counting   =       321.15231741     -324.01631375
  entropy T*S    EENTRO =        -0.00000000
  eigenvalues    EBANDS =      -136.13838688
  atomic energy  EATOM  =       579.39041991
  Solvation  Ediel_sol  =         0.00000000
  ---------------------------------------------------
  free energy    TOTEN  =       -12.66073911 eV

  energy without entropy =      -12.66073911  energy(sigma->0) =      -12.66073911


--------------------------------------------------------------------------------------------------------




 average (electrostatic) potential at core
  the test charge radii are     0.7215  0.6991
  (the norm of the test charge is              1.0000)
       1 -82.4433       2 -62.5440



 E-fermi :  -8.1044     XC(G=0):  -1.2478     alpha+bet : -0.3423


 k-point     1 :       0.0000    0.0000    0.0000
  band No.  band energies     occupation 
      1     -25.6727      2.00000
      2     -14.0366      2.00000
      3      -9.6234      2.00000
      4      -9.6234      2.00000
      5      -9.1132      2.00000
      6      -3.8237      0.00000
      7      -3.8237      0.00000
      8      -0.3041      0.00000
      9       1.4343      0.00000
     10       1.8880      0.00000
     11       1.8884      0.00000
     12       1.8884      0.00000


--------------------------------------------------------------------------------------------------------


 soft charge-density along one line, spin component           1
         0         1         2         3         4         5         6         7         8         9
 total charge-density along one line

 pseudopotential strength for first ion, spin component:           1
 14.078  -0.578   0.000  -0.079  -0.000  -0.000   0.004   0.000
 -0.578   0.131  -0.000   0.010   0.000   0.000  -0.002  -0.000
  0.000  -0.000 -10.886  -0.000  -0.000   0.398   0.000   0.000
 -0.079   0.010  -0.000 -10.942   0.000   0.000   0.405  -0.000
 -0.000   0.000  -0.000   0.000 -10.886   0.000  -0.000   0.398
 -0.000   0.000   0.398   0.000   0.000   0.093  -0.000  -0.000
  0.004  -0.002   0.000   0.405  -0.000  -0.000   0.091   0.000
  0.000  -0.000   0.000  -0.000   0.398  -0.000   0.000   0.093
 total augmentation occupancy for first ion, spin component:           1
  1.955   0.099   0.000  -0.156   0.000   0.000   0.029   0.000
  0.099   0.033   0.000   0.137   0.000  -0.000   0.034   0.000
  0.000   0.000   1.425   0.000   0.000   0.095   0.000   0.000
 -0.156   0.137   0.000   1.493  -0.000   0.000   0.196   0.000
  0.000   0.000   0.000  -0.000   1.425  -0.000   0.000   0.095
  0.000  -0.000   0.095   0.000  -0.000   0.006   0.000   0.000
  0.029   0.034   0.000   0.196   0.000   0.000   0.039   0.000
  0.000   0.000   0.000   0.000   0.095   0.000   0.000   0.006


------------------------ aborting loop because EDIFF is reached ----------------------------------------


    CHARGE:  cpu time    0.0098: real time    0.0098
    FORLOC:  cpu time    0.0043: real time    0.0043
    FORNL :  cpu time    0.0038: real time    0.0038
    STRESS:  cpu time    0.0532: real time    0.0532
    FORHAR:  cpu time    0.0198: real time    0.0198
    MIXING:  cpu time    0.0033: real time    0.0033
    OFIELD:  cpu time    0.0000: real time    0.0000

  FORCE on cell =-STRESS in cart. coord.  units (eV):
  Direction    XX          YY          ZZ          XY          YZ          ZX
  --------------------------------------------------------------------------------------
  Alpha Z     0.85011     0.85011     0.85011
  Ewald     -86.40480   -86.40480   166.98987    -0.00000    -0.00000    -0.00000
  Hartree   123.44701   123.44701   240.64238    -0.00000    -0.00000    -0.00000
  E(xc)     -42.09803   -42.09803   -41.05187    -0.00000     0.00000     0.00000
  Local    -169.33370  -169.33370  -534.06826     0.00000     0.00000     0.00000
  n-local   -15.64604   -15.64604   -22.71328     0.00000     0.00000     0.00000
  augment     5.99125     5.99125     5.85709     0.00000     0.00000    -0.00000
  Kinetic   182.40991   182.40991   165.65281    -0.00000    -0.00000     0.00000
  Fock        0.00000     0.00000     0.00000     0.00000     0.00000     0.00000
  -------------------------------------------------------------------------------------
  Total      -0.78429    -0.78429   -17.84116    -0.00000     0.00000     0.00000
  in kB      -2.45423    -2.45423   -55.82950    -0.00000     0.00000     0.00000
  external pressure =      -20.25 kB  Pullay stress =        0.00 kB


 VOLUME and BASIS-vectors are now :
 -----------------------------------------------------------------------------
  energy-cutoff  :      400.00
  volume of cell :      512.00
      direct lattice vectors                 reciprocal lattice vectors
     8.000000000  0.000000000  0.000000000     0.125000000  0.000000000  0.000000000
     0.000000000  8.000000000  0.000000000     0.000000000  0.125000000  0.000000000
     0.000000000  0.000000000  8.000000000     0.000000000  0.000000000  0.125000000

  length of vectors
     8.000000000  8.000000000  8.000000000     0.125000000  0.125000000  0.125000000


 FORCES acting on ions
    electron-ion (+dipol)            ewald-force                    non-local-force                 convergence-correction
 -----------------------------------------------------------------------------------------------
   -.281E-14 0.355E-13 0.141E+03   -.102E-15 -.130E-16 -.172E+03   0.808E-27 -.808E-27 0.428E+02   -.310E-13 -.949E-14 -.257E-02
   -.981E-15 0.426E-13 -.158E+03   0.564E-16 0.605E-16 0.172E+03   0.000E+00 0.000E+00 -.254E+02   0.110E-13 -.583E-14 -.116E-02
 -----------------------------------------------------------------------------------------------
   -.379E-14 0.782E-13 -.174E+02   -.451E-16 0.475E-16 0.000E+00   0.808E-27 -.808E-27 0.174E+02   -.200E-13 -.153E-13 -.372E-02


 POSITION                                       TOTAL-FORCE (eV/Angst)
 -----------------------------------------------------------------------------------
      0.00000      0.00000     -0.14063         0.000000      0.000000     12.239021
      0.00000      0.00000      1.26063         0.000000     -0.000000    -12.239021
 -----------------------------------------------------------------------------------
    total drift:                               -0.000000      0.000000      0.001207


--------------------------------------------------------------------------------------------------------



  FREE ENERGIE OF THE ION-ELECTRON SYSTEM (eV)
  ---------------------------------------------------
  free  energy   TOTEN  =       -12.66073911 eV

  energy  without entropy=      -12.66073911  energy(sigma->0) =      -12.66073911

 d Force =-0.1311253E+01[-0.344E+01, 0.820E+00]  d Energy =-0.2103323E+01 0.792E+00
 d Force = 0.6241781E+02[ 0.483E+02, 0.765E+02]  d Ewald  = 0.6085866E+02 0.156E+01


--------------------------------------------------------------------------------------------------------


    POTLOK:  cpu time    0.0622: real time    0.0622


--------------------------------------------------------------------------------------------------------


 Steepest descent step on ions:
 trial-energy change:    2.103323  1 .order    1.311253   -0.819931    3.442436
  (g-gl).g = 0.820E+00      g.g   = 0.820E+00  gl.gl    = 0.000E+00
 g(Force)  = 0.820E+00   g(Stress)= 0.000E+00 ortho     = 0.000E+00
 gamma     =   0.00000
 trial     =   1.00000
 opt step  =   0.19237  (harmonic =   0.19237) maximal distance =0.02705302
 next E    =   -14.842925   (d E  =  -0.07886)


--------------------------------------------------------------------------------------------------------


    WAVPRE:  cpu time    0.0115: real time    0.0115
    FEWALD:  cpu time    0.0001: real time    0.0001
[...]
  1.943   0.164   0.000  -0.106   0.000   0.000   0.081   0.000
  0.164   0.060   0.000   0.193   0.000   0.000   0.058   0.000
  0.000   0.000   1.454   0.000   0.000   0.134   0.000   0.000
 -0.106   0.193   0.000   1.742   0.000   0.000   0.269   0.000
 -0.000  -0.000   0.000   0.000   1.454  -0.000   0.000   0.134
  0.000   0.000   0.134  -0.000  -0.000   0.012   0.000   0.000
  0.081   0.058   0.000   0.269   0.000   0.000   0.063   0.000
  0.000  -0.000   0.000   0.000   0.134   0.000   0.000   0.012


------------------------ aborting loop because EDIFF is reached ----------------------------------------


    CHARGE:  cpu time    0.0098: real time    0.0099
    FORLOC:  cpu time    0.0044: real time    0.0044
    FORNL :  cpu time    0.0040: real time    0.0040
    STRESS:  cpu time    0.0524: real time    0.0524
    FORHAR:  cpu time    0.0198: real time    0.0198
    MIXING:  cpu time    0.0033: real time    0.0033
    OFIELD:  cpu time    0.0000: real time    0.0000

  FORCE on cell =-STRESS in cart. coord.  units (eV):
  Direction    XX          YY          ZZ          XY          YZ          ZX
  --------------------------------------------------------------------------------------
  Alpha Z     0.85011     0.85011     0.85011
  Ewald     -86.05006   -86.05006   213.10572    -0.00000    -0.00000     0.00000
  Hartree   138.10543   138.10543   250.43885    -0.00000    -0.00000    -0.00000
  E(xc)     -43.49571   -43.49571   -42.32808    -0.00000    -0.00000     0.00000
  Local    -187.81718  -187.81718  -576.86582     0.00000     0.00000    -0.00000
  n-local   -18.04575   -18.04575   -28.87104     0.00000     0.00000     0.00000
  augment     6.18058     6.18058     5.86609     0.00000     0.00000    -0.00000
  Kinetic   189.49686   189.49686   173.42097     0.00000    -0.00000     0.00000
  Fock        0.00000     0.00000     0.00000     0.00000     0.00000     0.00000
  -------------------------------------------------------------------------------------
  Total      -0.77573    -0.77573    -4.38320    -0.00000     0.00000     0.00000
  in kB      -2.42744    -2.42744   -13.71615    -0.00000     0.00000     0.00000
  external pressure =       -6.19 kB  Pullay stress =        0.00 kB


 VOLUME and BASIS-vectors are now :
 -----------------------------------------------------------------------------
  energy-cutoff  :      400.00
  volume of cell :      512.00
      direct lattice vectors                 reciprocal lattice vectors
     8.000000000  0.000000000  0.000000000     0.125000000  0.000000000  0.000000000
     0.000000000  8.000000000  0.000000000     0.000000000  0.125000000  0.000000000
     0.000000000  0.000000000  8.000000000     0.000000000  0.000000000  0.125000000

  length of vectors
     8.000000000  8.000000000  8.000000000     0.125000000  0.125000000  0.125000000


 FORCES acting on ions
    electron-ion (+dipol)            ewald-force                    non-local-force                 convergence-correction
 -----------------------------------------------------------------------------------------------
   -.360E-14 0.533E-13 0.193E+03   -.792E-16 0.101E-15 -.247E+03   0.000E+00 0.000E+00 0.574E+02   -.273E-13 -.876E-14 0.433E-02
   0.165E-15 0.213E-12 -.222E+03   0.340E-16 -.538E-16 0.247E+03   0.000E+00 0.202E-27 -.280E+02   0.298E-14 0.565E-14 -.898E-03
 -----------------------------------------------------------------------------------------------
   -.343E-14 0.266E-12 -.293E+02   -.451E-16 0.475E-16 0.000E+00   0.000E+00 0.202E-27 0.294E+02   -.243E-13 -.311E-14 0.343E-02


 POSITION                                       TOTAL-FORCE (eV/Angst)
 -----------------------------------------------------------------------------------
      0.00000      0.00000     -0.02705         0.000000      0.000000      3.119492
      0.00000      0.00000      1.14705         0.000000     -0.000000     -3.119492
 -----------------------------------------------------------------------------------
    total drift:                               -0.000000      0.000000      0.008509


--------------------------------------------------------------------------------------------------------



  FREE ENERGIE OF THE ION-ELECTRON SYSTEM (eV)
  ---------------------------------------------------
  free  energy   TOTEN  =       -14.74789743 eV

  energy  without entropy=      -14.74789743  energy(sigma->0) =      -14.74789743

 d Force = 0.1744430E+01[ 0.709E+00, 0.278E+01]  d Energy = 0.2087158E+01-0.343E+00
 d Force =-0.4757260E+02[-0.561E+02,-0.390E+02]  d Ewald  =-0.4682531E+02-0.747E+00


--------------------------------------------------------------------------------------------------------


    POTLOK:  cpu time    0.0613: real time    0.0613


--------------------------------------------------------------------------------------------------------




--------------------------------------------------------------------------------------------------------


    WAVPRE:  cpu time    0.0115: real time    0.0115
    FEWALD:  cpu time    0.0001: real time    0.0001
    ORTHCH:  cpu time    0.0016: real time    0.0016
     LOOP+:  cpu time    1.3498: real time    1.3549


--------------------------------------- Iteration      4(   1)  ---------------------------------------


    POTLOK:  cpu time    0.0629: real time    0.0629
    SETDIJ:  cpu time    0.0006: real time    0.0006
     EDDAV:  cpu time    0.0327: real time    0.0327
       DOS:  cpu time    0.0001: real time    0.0001
    CHARGE:  cpu time    0.0099: real time    0.0099
    MIXING:  cpu time    0.0023: real time    0.0023
    --------------------------------------------
      LOOP:  cpu time    0.1087: real time    0.1087

 eigenvalue-minimisations  :    24
 total energy-change (2. order) :-0.5157090E-01  (-0.2002028E+00)
 number of electron      10.0000086 magnetization 
 augmentation part        0.6501910 magnetization 

 Broyden mixing:
  rms(total) = 0.43653E-01    rms(broyden)= 0.43525E-01
  rms(prec ) = 0.59424E-01
  weight for this iteration     100.00

 Free energy of the ion-electron system (eV)
  ---------------------------------------------------
  alpha Z        PSCENC =         0.85010715
  Ewald energy   TEWEN  =        48.09108987
  -Hartree energ DENC   =      -530.85348493
  -exchange      EXHF   =         0.00000000
  -V(xc)+E(xc)   XCENC  =        40.94686233
  PAW double counting   =       367.12171047     -370.17829614
  entropy T*S    EENTRO =        -0.00000000
  eigenvalues    EBANDS =      -150.16783915
  atomic energy  EATOM  =       579.39041991
  Solvation  Ediel_sol  =         0.00000000
  ---------------------------------------------------
  free energy    TOTEN  =       -14.79943050 eV

  energy without entropy =      -14.79943050  energy(sigma->0) =      -14.79943050


--------------------------------------------------------------------------------------------------------




--------------------------------------- Iteration      4(   2)  ---------------------------------------


    POTLOK:  cpu time    0.0624: real time    0.0623
    SETDIJ:  cpu time    0.0006: real time    0.0006
     EDDAV:  cpu time    0.0324: real time    0.0324
       DOS:  cpu time    0.0001: real time    0.0001
    CHARGE:  cpu time    0.0098: real time    0.0098
    MIXING:  cpu time    0.0025: real time    0.0025
    --------------------------------------------
      LOOP:  cpu time    0.1077: real time    0.1077

 eigenvalue-minimisations  :    24
 total energy-change (2. order) : 0.9822925E-03  (-0.4272072E-02)
 number of electron      10.0000087 magnetization 
 augmentation part        0.6529713 magnetization 

 Broyden mixing:
  rms(total) = 0.26115E-01    rms(broyden)= 0.26099E-01
  rms(prec ) = 0.34266E-01
  weight for this iteration     100.00

 eigenvalues of (default mixing * dielectric matrix)
  average eigenvalue GAMMA=   1.3955
  1.3955

 Free energy of the ion-electron system (eV)
  ---------------------------------------------------
  alpha Z        PSCENC =         0.85010715
  Ewald energy   TEWEN  =        48.09108987
  -Hartree energ DENC   =      -531.58248895
  -exchange      EXHF   =         0.00000000
  -V(xc)+E(xc)   XCENC  =        40.99186809
  PAW double counting   =       370.77601202     -373.84763975
  entropy T*S    EENTRO =        -0.00000000
  eigenvalues    EBANDS =      -149.46781654
  atomic energy  EATOM  =       579.39041991
  Solvation  Ediel_sol  =         0.00000000
  ---------------------------------------------------
  free energy    TOTEN  =       -14.79844821 eV

  energy without entropy =      -14.79844821  energy(sigma->0) =      -14.79844821


--------------------------------------------------------------------------------------------------------




--------------------------------------- Iteration      4(   3)  ---------------------------------------


    POTLOK:  cpu time    0.0619: real time    0.0619
    SETDIJ:  cpu time    0.0006: real time    0.0006
     EDDAV:  cpu time    0.0318: real time    0.0318
       DOS:  cpu time    0.0001: real time    0.0001
    CHARGE:  cpu time    0.0098: real time    0.0098
    MIXING:  cpu time    0.0025: real time    0.0025
    --------------------------------------------
      LOOP:  cpu time    0.1067: real time    0.1067

 eigenvalue-minimisations  :    24
 total energy-change (2. order) : 0.1606738E-02  (-0.5462370E-03)
 number of electron      10.0000086 magnetization 
 augmentation part        0.6513362 magnetization 

 Broyden mixing:
  rms(total) = 0.68986E-02    rms(broyden)= 0.68833E-02
  rms(prec ) = 0.85945E-02
  weight for this iteration     100.00

 eigenvalues of (default mixing * dielectric matrix)
  average eigenvalue GAMMA=   1.3853
  1.0970  1.6736

 Free energy of the ion-electron system (eV)
  ---------------------------------------------------
  alpha Z        PSCENC =         0.85010715
  Ewald energy   TEWEN  =        48.09108987
  -Hartree energ DENC   =      -532.31948144
  -exchange      EXHF   =         0.00000000
  -V(xc)+E(xc)   XCENC  =        41.03397320
  PAW double counting   =       374.25365651     -377.34730199
  entropy T*S    EENTRO =        -0.00000000
  eigenvalues    EBANDS =      -148.74930468
  atomic energy  EATOM  =       579.39041991
  Solvation  Ediel_sol  =         0.00000000
  ---------------------------------------------------
  free energy    TOTEN  =       -14.79684147 eV

  energy without entropy =      -14.79684147  energy(sigma->0) =      -14.79684147


--------------------------------------------------------------------------------------------------------




--------------------------------------- Iteration      4(   4)  ---------------------------------------


    POTLOK:  cpu time    0.0616: real time    0.0616
    SETDIJ:  cpu time    0.0006: real time    0.0006
     EDDAV:  cpu time    0.0366: real time    0.0366
       DOS:  cpu time    0.0001: real time    0.0001
    --------------------------------------------
      LOOP:  cpu time    0.0989: real time    0.0989

 eigenvalue-minimisations  :    28
 total energy-change (2. order) : 0.1466565E-04  (-0.2360183E-04)
 number of electron      10.0000086 magnetization 
 augmentation part        0.6513362 magnetization 

 Free energy of the ion-electron system (eV)
  ---------------------------------------------------
  alpha Z        PSCENC =         0.85010715
  Ewald energy   TEWEN  =        48.09108987
  -Hartree energ DENC   =      -532.35159150
  -exchange      EXHF   =         0.00000000
  -V(xc)+E(xc)   XCENC  =        41.03597455
  PAW double counting   =       375.09176057     -378.18828542
  entropy T*S    EENTRO =        -0.00000000
  eigenvalues    EBANDS =      -148.71630192
  atomic energy  EATOM  =       579.39041991
  Solvation  Ediel_sol  =         0.00000000
  ---------------------------------------------------
  free energy    TOTEN  =       -14.79682681 eV

  energy without entropy =      -14.79682681  energy(sigma->0) =      -14.79682681


--------------------------------------------------------------------------------------------------------




 average (electrostatic) potential at core
  the test charge radii are     0.7215  0.6991
  (the norm of the test charge is              1.0000)
       1 -83.2822       2 -61.4012



 E-fermi :  -7.8299     XC(G=0):  -1.2391     alpha+bet : -0.3423


 k-point     1 :       0.0000    0.0000    0.0000
  band No.  band energies     occupation 
      1     -28.9433      2.00000
      2     -13.7651      2.00000
      3     -11.4383      2.00000
      4     -11.4383      2.00000
      5      -8.7731      2.00000
      6      -1.8794      0.00000
      7      -1.8794      0.00000
      8      -0.3128      0.00000
      9       1.6876      0.00000
     10       1.8239      0.00000
     11       1.8239      0.00000
     12       1.8983      0.00000


--------------------------------------------------------------------------------------------------------


 soft charge-density along one line, spin component           1
         0         1         2         3         4         5         6         7         8         9
 total charge-density along one line

 pseudopotential strength for first ion, spin component:           1
 14.192  -0.592   0.000  -0.146   0.000  -0.000   0.008  -0.000
 -0.592   0.133  -0.000   0.016  -0.000   0.000  -0.003   0.000
  0.000  -0.000 -11.001   0.000   0.000   0.414  -0.000  -0.000
 -0.146   0.016   0.000 -11.143   0.000  -0.000   0.433  -0.000
  0.000  -0.000   0.000   0.000 -11.001  -0.000  -0.000   0.414
 -0.000   0.000   0.414  -0.000  -0.000   0.088   0.000   0.000
  0.008  -0.003  -0.000   0.433  -0.000   0.000   0.084   0.000
 -0.000   0.000  -0.000  -0.000   0.414   0.000   0.000   0.088
 total augmentation occupancy for first ion, spin component:           1
  1.945   0.176   0.000  -0.092   0.000   0.000   0.088   0.000
  0.176   0.064   0.000   0.200  -0.000   0.000   0.061   0.000
  0.000   0.000   1.459   0.000   0.000   0.140   0.000   0.000
 -0.092   0.200   0.000   1.780   0.000   0.000   0.275  -0.000
  0.000  -0.000   0.000   0.000   1.459   0.000   0.000   0.140
  0.000   0.000   0.140   0.000   0.000   0.013   0.000   0.000
  0.088   0.061   0.000   0.275   0.000   0.000   0.064   0.000
  0.000   0.000   0.000  -0.000   0.140   0.000   0.000   0.013


------------------------ aborting loop because EDIFF is reached ----------------------------------------


    CHARGE:  cpu time    0.0099: real time    0.0099
    FORLOC:  cpu time    0.0042: real time    0.0042
    FORNL :  cpu time    0.0038: real time    0.0038
    STRESS:  cpu time    0.0523: real time    0.0523
    FORHAR:  cpu time    0.0195: real time    0.0195
    MIXING:  cpu time    0.0026: real time    0.0026
    OFIELD:  cpu time    0.0000: real time    0.0000

  FORCE on cell =-STRESS in cart. coord.  units (eV):
  Direction    XX          YY          ZZ          XY          YZ          ZX
  --------------------------------------------------------------------------------------
  Alpha Z     0.85011     0.85011     0.85011
  Ewald     -86.00925   -86.00925   220.10954    -0.00000     0.00000     0.00000
  Hartree   140.28420   140.28420   251.77820    -0.00000    -0.00000    -0.00000
  E(xc)     -43.71557   -43.71557   -42.53646    -0.00000     0.00000    -0.00000
  Local    -190.62658  -190.62658  -582.29292    -0.00000    -0.00000    -0.00000
  n-local   -18.40496   -18.40495   -29.66608     0.00000     0.00000     0.00000
  augment     6.22206     6.22206     5.75530     0.00000    -0.00000     0.00000
  Kinetic   190.63058   190.63049   174.90531    -0.00000     0.00000     0.00000
  Fock        0.00000     0.00000     0.00000     0.00000     0.00000     0.00000
  -------------------------------------------------------------------------------------
  Total      -0.76945    -0.76945    -1.09700    -0.00000    -0.00000     0.00000
  in kB      -2.40781    -2.40781    -3.43279    -0.00000    -0.00000     0.00000
  external pressure =       -2.75 kB  Pullay stress =        0.00 kB


 VOLUME and BASIS-vectors are now :
 -----------------------------------------------------------------------------
  energy-cutoff  :      400.00
  volume of cell :      512.00
      direct lattice vectors                 reciprocal lattice vectors
     8.000000000  0.000000000  0.000000000     0.125000000  0.000000000  0.000000000
     0.000000000  8.000000000  0.000000000     0.000000000  0.125000000  0.000000000
     0.000000000  0.000000000  8.000000000     0.000000000  0.000000000  0.125000000

  length of vectors
     8.000000000  8.000000000  8.000000000     0.125000000  0.125000000  0.125000000


 FORCES acting on ions
    electron-ion (+dipol)            ewald-force                    non-local-force                 convergence-correction
 -----------------------------------------------------------------------------------------------
   -.143E-14 0.107E-13 0.201E+03   -.272E-16 0.596E-16 -.260E+03   -.323E-26 0.323E-26 0.593E+02   -.394E-13 -.224E-13 -.352E-01
   0.126E-15 -.217E-12 -.232E+03   -.180E-16 -.122E-16 0.260E+03   -.808E-27 0.404E-27 -.281E+02   -.593E-14 -.563E-14 -.114E-01
 -----------------------------------------------------------------------------------------------
   -.130E-14 -.206E-12 -.312E+02   -.451E-16 0.475E-16 0.000E+00   -.404E-26 0.364E-26 0.313E+02   -.453E-13 -.280E-13 -.466E-01


 POSITION                                       TOTAL-FORCE (eV/Angst)
 -----------------------------------------------------------------------------------
      0.00000      0.00000     -0.01307        -0.000000      0.000000      0.289121
      0.00000      0.00000      1.13307         0.000000     -0.000000     -0.289121
 -----------------------------------------------------------------------------------
    total drift:                               -0.000000     -0.000000     -0.008091


--------------------------------------------------------------------------------------------------------



  FREE ENERGIE OF THE ION-ELECTRON SYSTEM (eV)
  ---------------------------------------------------
  free  energy   TOTEN  =       -14.79682681 eV

  energy  without entropy=      -14.79682681  energy(sigma->0) =      -14.79682681

 d Force = 0.4766801E-01[ 0.809E-02, 0.872E-01]  d Energy = 0.4892937E-01-0.126E-02
 d Force =-0.7087529E+01[-0.726E+01,-0.691E+01]  d Ewald  =-0.7085443E+01-0.209E-02


--------------------------------------------------------------------------------------------------------


    POTLOK:  cpu time    0.0607: real time    0.0607


--------------------------------------------------------------------------------------------------------




--------------------------------------------------------------------------------------------------------


  
 reached required accuracy - stopping structural energy minimisation
 writing wavefunctions
     LOOP+:  cpu time    0.5799: real time    0.5799
    4ORBIT:  cpu time    0.0000: real time    0.0000

 total amount of memory used by VASP MPI-rank0    46485. kBytes
=======================================================================

   base      :      30000. kBytes
   nonl-proj :       1490. kBytes
   fftplans  :       4661. kBytes
   grid      :       9881. kBytes
   one-center:          6. kBytes
   wavefun   :        447. kBytes

  
  
 General timing and accounting informations for this job:
 ========================================================
  
                  Total CPU time used (sec):        5.994
                            User time (sec):        5.643
                          System time (sec):        0.350
                         Elapsed time (sec):        6.282
  
                   Maximum memory used (kb):       58176.
                   Average memory used (kb):           0.
  
                          Minor page faults:       104304
                          Major page faults:           39
                 Voluntary context switches:         1218
