 running on    4 total cores
 distrk:  each k-point on    4 cores,    1 groups
 distr:  one band on    1 cores,    4 groups
 using from now: INCAR     
 vasp.5.4.4.18Apr17-6-g9f103f2a35 (build Dec 28 2021 15:39:15) complex           
 POSCAR found :  2 types and       2 ions
 scaLAPACK will be used
 LDA part: xc-table for Pade appr. of Perdew
 POSCAR, INCAR and KPOINTS ok, starting setup
 FFT: planning ...
 WAVECAR not read
 entering main loop
       N       E                     dE             d eps       ncg     rms          rms(c)
DAV:   1     0.730472575912E+02    0.73047E+02   -0.20090E+03    24   0.387E+02
DAV:   2    -0.454285874249E+01   -0.77590E+02   -0.76792E+02    36   0.127E+02
DAV:   3    -0.155953011004E+02   -0.11052E+02   -0.11047E+02    44   0.585E+01
DAV:   4    -0.156472967334E+02   -0.51996E-01   -0.51994E-01    36   0.444E+00
DAV:   5    -0.156473209616E+02   -0.24228E-04   -0.24228E-04    32   0.973E-02    0.639E+00
DAV:   6    -0.149348333152E+02    0.71249E+00   -0.32230E+00    32   0.998E+00    0.321E+00
DAV:   7    -0.147951956239E+02    0.13964E+00   -0.57622E-01    40   0.372E+00    0.159E+00
DAV:   8    -0.147598798536E+02    0.35316E-01   -0.12390E-01    28   0.224E+00    0.401E-01
DAV:   9    -0.147589331098E+02    0.94674E-03   -0.68139E-03    24   0.516E-01    0.908E-02
DAV:  10    -0.147599719760E+02   -0.10389E-02   -0.10852E-03    24   0.180E-01    0.363E-02
DAV:  11    -0.147623424939E+02   -0.23705E-02   -0.62545E-04    24   0.104E-01    0.190E-02
DAV:  12    -0.147629541850E+02   -0.61169E-03   -0.66682E-05    32   0.401E-02    0.111E-02
DAV:  13    -0.147638331647E+02   -0.87898E-03   -0.13283E-04    32   0.411E-02    0.391E-03
DAV:  14    -0.147639851638E+02   -0.15200E-03   -0.11288E-05    32   0.145E-02    0.244E-03
DAV:  15    -0.147640621964E+02   -0.77033E-04   -0.61484E-06    28   0.918E-03
   1 F= -.14764062E+02 E0= -.14764062E+02  d E =-.147641E+02
 curvature:   0.00 expect dE= 0.000E+00 dE for cont linesearch  0.000E+00
 trial: gam= 0.00000 g(F)=  0.820E+00 g(S)=  0.000E+00 ort = 0.000E+00 (trialstep = 0.100E+01)
 search vector abs. value=  0.820E+00
 bond charge predicted
       N       E                     dE             d eps       ncg     rms          rms(c)
DAV:   1    -0.128793436795E+02    0.18846E+01   -0.19091E+02    24   0.106E+02    0.419E+00
DAV:   2    -0.127100378429E+02    0.16931E+00   -0.42443E+00    24   0.130E+01    0.219E+00
DAV:   3    -0.126783598761E+02    0.31678E-01   -0.75000E-01    32   0.454E+00    0.128E+00
DAV:   4    -0.126529584908E+02    0.25401E-01   -0.23741E-01    32   0.197E+00    0.476E-01
DAV:   5    -0.126567474936E+02   -0.37890E-02   -0.11189E-02    28   0.672E-01    0.145E-01
DAV:   6    -0.126583303100E+02   -0.15828E-02   -0.86784E-04    24   0.193E-01    0.338E-02
DAV:   7    -0.126593066296E+02   -0.97632E-03   -0.35960E-04    24   0.901E-02    0.249E-02
DAV:   8    -0.126603170404E+02   -0.10104E-02   -0.28268E-04    24   0.800E-02    0.171E-02
DAV:   9    -0.126605866753E+02   -0.26963E-03   -0.45227E-05    24   0.350E-02    0.439E-03
DAV:  10    -0.126607028178E+02   -0.11614E-03   -0.11756E-05    24   0.181E-02    0.320E-03
DAV:  11    -0.126607391109E+02   -0.36293E-04   -0.33494E-06    28   0.833E-03
   2 F= -.12660739E+02 E0= -.12660739E+02  d E =0.210332E+01
 trial-energy change:    2.103323  1 .order    1.311253   -0.819931    3.442436
 step:   0.1924(harm=  0.1924)  dis= 0.02705  next Energy=   -14.842925 (dE=-0.789E-01)
 bond charge predicted
       N       E                     dE             d eps       ncg     rms          rms(c)
DAV:   1    -0.147106365914E+02   -0.20499E+01   -0.11954E+02    28   0.842E+01    0.281E+00
DAV:   2    -0.148423030296E+02   -0.13167E+00   -0.35413E+00    24   0.130E+01    0.223E+00
DAV:   3    -0.147716228877E+02    0.70680E-01   -0.20553E-01    28   0.267E+00    0.116E+00
DAV:   4    -0.147437719855E+02    0.27851E-01   -0.15600E-01    24   0.275E+00    0.288E-01
DAV:   5    -0.147433646755E+02    0.40731E-03   -0.93612E-03    24   0.605E-01    0.143E-01
DAV:   6    -0.147446742011E+02   -0.13095E-02   -0.74479E-04    28   0.176E-01    0.273E-02
DAV:   7    -0.147455900025E+02   -0.91580E-03   -0.13114E-04    28   0.581E-02    0.214E-02
DAV:   8    -0.147473580449E+02   -0.17680E-02   -0.34526E-04    24   0.743E-02    0.108E-02
DAV:   9    -0.147476161061E+02   -0.25806E-03   -0.17565E-05    28   0.203E-02    0.532E-03
DAV:  10    -0.147478596019E+02   -0.24350E-03   -0.23898E-05    24   0.236E-02    0.302E-03
DAV:  11    -0.147478974338E+02   -0.37832E-04   -0.26746E-06    28   0.760E-03
   3 F= -.14747897E+02 E0= -.14747897E+02  d E =0.161648E-01
 curvature:  -0.10 expect dE=-0.903E-01 dE for cont linesearch -0.903E-01
 ZBRENT: interpolating
 opt :   0.0929  next Energy=   -14.802158 (dE=-0.381E-01)
 bond charge predicted
       N       E                     dE             d eps       ncg     rms          rms(c)
DAV:   1    -0.147994305027E+02   -0.51571E-01   -0.20020E+00    24   0.113E+01    0.437E-01
DAV:   2    -0.147984482103E+02    0.98229E-03   -0.42721E-02    24   0.149E+00    0.261E-01
DAV:   3    -0.147968414724E+02    0.16067E-02   -0.54624E-03    24   0.530E-01    0.690E-02
DAV:   4    -0.147968268068E+02    0.14666E-04   -0.23602E-04    28   0.105E-01
   4 F= -.14796827E+02 E0= -.14796827E+02  d E =-.327646E-01
 curvature:  -0.04 expect dE=-0.327E-03 dE for cont linesearch -0.327E-03
 trial: gam= 0.00000 g(F)=  0.807E-02 g(S)=  0.000E+00 ort =-0.813E-01 (trialstep = 0.819E+00)
 search vector abs. value=  0.807E-02
 reached required accuracy - stopping structural energy minimisation
 writing wavefunctions
