<?xml version="1.0" encoding="ISO-8859-1"?>
<modeling>
 <generator>
  <i name="program" type="string">vasp </i>
  <i name="version" type="string">5.4.4.18Apr17-6-g9f103f2a35  </i>
  <i name="subversion" type="string">(build Dec 28 2021 15:39:15) complex            parallel </i>
  <i name="platform" type="string">LinuxGNU </i>
  <i name="date" type="string">2021 12 31 </i>
  <i name="time" type="string">11:00:56 </i>
 </generator>
 <incar>
  <i type="string" name="SYSTEM"> CO dimer in a box</i>
  <i type="string" name="PREC">normal</i>
  <i type="int" name="IBRION">     2</i>
  <i type="int" name="NSW">     5</i>
  <i type="int" name="ISMEAR">     0</i>
  <v type="int" name="KPOINT_BSE">    -1     0     0     0</v>
 </incar>
 <structure name="primitive_cell" >
  <crystal>
   <varray name="basis" >
    <v>       8.00000000       0.00000000       0.00000000 </v>
    <v>       0.00000000       8.00000000       0.00000000 </v>
    <v>       0.00000000       0.00000000       8.00000000 </v>
   </varray>
   <i name="volume">    512.00000000 </i>
   <varray name="rec_basis" >
    <v>       0.12500000       0.00000000       0.00000000 </v>
    <v>       0.00000000       0.12500000       0.00000000 </v>
    <v>       0.00000000       0.00000000       0.12500000 </v>
   </varray>
  </crystal>
  <varray name="positions" >
   <v>       0.00000000       0.00000000       0.00000000 </v>
   <v>       0.00000000       0.00000000       0.14000000 </v>
  </varray>
 </structure>
 <varray name="primitive_index" >
  <v type="int" >        1 </v>
  <v type="int" >        2 </v>
 </varray>
 <kpoints>
  <varray name="kpointlist" >
   <v>       0.00000000       0.00000000       0.00000000 </v>
  </varray>
  <varray name="weights" >
   <v>       1.00000000 </v>
  </varray>
 </kpoints>
 <parameters>
  <separator name="general" >
   <i type="string" name="SYSTEM">CO dimer in a box</i>
   <i type="logical" name="LCOMPAT"> F  </i>
  </separator>
  <separator name="electronic" >
   <i type="string" name="PREC">normal</i>
   <i name="ENMAX">    400.00000000</i>
   <i name="ENAUG">    644.87300000</i>
   <i name="EDIFF">      0.00010000</i>
   <i type="int" name="IALGO">    38</i>
   <i type="int" name="IWAVPR">    11</i>
   <i type="int" name="NBANDS">    12</i>
   <i name="NELECT">     10.00000000</i>
   <i type="int" name="TURBO">     0</i>
   <i type="int" name="IRESTART">     0</i>
   <i type="int" name="NREBOOT">     0</i>
   <i type="int" name="NMIN">     0</i>
   <i name="EREF">      0.00000000</i>
   <separator name="electronic smearing" >
    <i type="int" name="ISMEAR">     0</i>
    <i name="SIGMA">      0.20000000</i>
    <i name="KSPACING">      0.50000000</i>
    <i type="logical" name="KGAMMA"> T  </i>
   </separator>
   <separator name="electronic projectors" >
    <i type="logical" name="LREAL"> F  </i>
    <v name="ROPT">      0.00000000      0.00000000</v>
    <i type="int" name="LMAXPAW">  -100</i>
    <i type="int" name="LMAXMIX">     2</i>
    <i type="logical" name="NLSPLINE"> F  </i>
   </separator>
   <separator name="electronic startup" >
    <i type="int" name="ISTART">     0</i>
    <i type="int" name="ICHARG">     2</i>
    <i type="int" name="INIWAV">     1</i>
   </separator>
   <separator name="electronic spin" >
    <i type="int" name="ISPIN">     1</i>
    <i type="logical" name="LNONCOLLINEAR"> F  </i>
    <v name="MAGMOM">      1.00000000      1.00000000</v>
    <i name="NUPDOWN">     -1.00000000</i>
    <i type="logical" name="LSORBIT"> F  </i>
    <v name="SAXIS">      0.00000000      0.00000000      1.00000000</v>
    <i type="logical" name="LSPIRAL"> F  </i>
    <v name="QSPIRAL">      0.00000000      0.00000000      0.00000000</v>
    <i type="logical" name="LZEROZ"> F  </i>
   </separator>
   <separator name="electronic exchange-correlation" >
    <i type="logical" name="LASPH"> F  </i>
    <i type="logical" name="LMETAGGA"> F  </i>
   </separator>
   <separator name="electronic convergence" >
    <i type="int" name="NELM">    60</i>
    <i type="int" name="NELMDL">    -5</i>
    <i type="int" name="NELMIN">     2</i>
    <i name="ENINI">    400.00000000</i>
    <separator name="electronic convergence detail" >
     <i type="logical" name="LDIAG"> T  </i>
     <i type="logical" name="LSUBROT"> F  </i>
     <i name="WEIMIN">      0.00100000</i>
     <i name="EBREAK">      0.00000208</i>
     <i name="DEPER">      0.30000000</i>
     <i type="int" name="NRMM">     4</i>
     <i name="TIME">      0.40000000</i>
    </separator>
   </separator>
   <separator name="electronic mixer" >
    <i name="AMIX">      0.40000000</i>
    <i name="BMIX">      1.00000000</i>
    <i name="AMIN">      0.10000000</i>
    <i name="AMIX_MAG">      1.60000000</i>
    <i name="BMIX_MAG">      1.00000000</i>
    <separator name="electronic mixer details" >
     <i type="int" name="IMIX">     4</i>
     <i type="logical" name="MIXFIRST"> F  </i>
     <i type="int" name="MAXMIX">   -45</i>
     <i name="WC">    100.00000000</i>
     <i type="int" name="INIMIX">     1</i>
     <i type="int" name="MIXPRE">     1</i>
     <i type="int" name="MREMOVE">     5</i>
    </separator>
   </separator>
   <separator name="electronic dipolcorrection" >
    <i type="logical" name="LDIPOL"> F  </i>
    <i type="logical" name="LMONO"> F  </i>
    <i type="int" name="IDIPOL">     0</i>
    <i name="EPSILON">      1.00000000</i>
    <v name="DIPOL">   -100.00000000   -100.00000000   -100.00000000</v>
    <i name="EFIELD">      0.00000000</i>
   </separator>
  </separator>
  <separator name="grids" >
   <i type="int" name="NGX">    40</i>
   <i type="int" name="NGY">    40</i>
   <i type="int" name="NGZ">    40</i>
   <i type="int" name="NGXF">    80</i>
   <i type="int" name="NGYF">    80</i>
   <i type="int" name="NGZF">    80</i>
   <i type="logical" name="ADDGRID"> F  </i>
  </separator>
  <separator name="ionic" >
   <i type="int" name="NSW">     5</i>
   <i type="int" name="IBRION">     2</i>
   <i type="int" name="MDALGO">     0</i>
   <i type="int" name="ISIF">     2</i>
   <i name="PSTRESS">      0.00000000</i>
   <i name="EDIFFG">      0.00100000</i>
   <i type="int" name="NFREE">     1</i>
   <i name="POTIM">      0.50000000</i>
   <i name="SMASS">     -3.00000000</i>
   <i name="SCALEE">      1.00000000</i>
  </separator>
  <separator name="ionic md" >
   <i name="TEBEG">      0.00010000</i>
   <i name="TEEND">      0.00010000</i>
   <i type="int" name="NBLOCK">     1</i>
   <i type="int" name="KBLOCK">     5</i>
   <i type="int" name="NPACO">   256</i>
   <i name="APACO">     16.00000000</i>
  </separator>
  <separator name="symmetry" >
   <i type="int" name="ISYM">     2</i>
   <i name="SYMPREC">      0.00001000</i>
  </separator>
  <separator name="dos" >
   <i type="int" name="LORBIT">     0</i>
   <v name="RWIGS">     -1.00000000     -1.00000000</v>
   <i type="int" name="NEDOS">   301</i>
   <i name="EMIN">     10.00000000</i>
   <i name="EMAX">    -10.00000000</i>
   <i name="EFERMI">      0.00000000</i>
  </separator>
  <separator name="writing" >
   <i type="int" name="NWRITE">     2</i>
   <i type="logical" name="LWAVE"> T  </i>
   <i type="logical" name="LDOWNSAMPLE"> F  </i>
   <i type="logical" name="LCHARG"> T  </i>
   <i type="logical" name="LPARD"> F  </i>
   <i type="logical" name="LVTOT"> F  </i>
   <i type="logical" name="LVHAR"> F  </i>
   <i type="logical" name="LELF"> F  </i>
   <i type="logical" name="LOPTICS"> F  </i>
   <v name="STM">      0.00000000      0.00000000      0.00000000      0.00000000      0.00000000      0.00000000      0.00000000</v>
  </separator>
  <separator name="performance" >
   <i type="int" name="NPAR">     4</i>
   <i type="int" name="NSIM">     4</i>
   <i type="int" name="NBLK">    -1</i>
   <i type="logical" name="LPLANE"> T  </i>
   <i type="logical" name="LSCALAPACK"> T  </i>
   <i type="logical" name="LSCAAWARE"> F  </i>
   <i type="logical" name="LSCALU"> F  </i>
   <i type="logical" name="LASYNC"> F  </i>
   <i type="logical" name="LORBITALREAL"> F  </i>
  </separator>
  <separator name="miscellaneous" >
   <i type="int" name="IDIOT">     3</i>
   <i type="int" name="ISPECIAL">     0</i>
   <i type="logical" name="LMUSIC"> F  </i>
   <v name="POMASS">     16.00000000     12.01100000</v>
   <v name="DARWINR">      0.00000000      0.00000000</v>
   <v name="DARWINV">      1.00000000      1.00000000</v>
   <i type="logical" name="LCORR"> T  </i>
  </separator>
  <i type="logical" name="GGA_COMPAT"> T  </i>
  <i type="logical" name="LBERRY"> F  </i>
  <i type="int" name="ICORELEVEL">     0</i>
  <i type="logical" name="LDAU"> F  </i>
  <i type="int" name="I_CONSTRAINED_M">     0</i>
  <separator name="electronic exchange-correlation" >
   <i type="string" name="GGA">--</i>
   <i type="int" name="VOSKOWN">     0</i>
   <i type="logical" name="LHFCALC"> F  </i>
   <i type="string" name="PRECFOCK"></i>
   <i type="logical" name="LSYMGRAD"> F  </i>
   <i type="logical" name="LHFONE"> F  </i>
   <i type="logical" name="LRHFCALC"> F  </i>
   <i type="logical" name="LTHOMAS"> F  </i>
   <i type="logical" name="LMODELHF"> F  </i>
   <i name="ENCUT4O">     -1.00000000</i>
   <i type="int" name="EXXOEP">     0</i>
   <i type="int" name="FOURORBIT">     0</i>
   <i name="AEXX">      0.00000000</i>
   <i name="HFALPHA">      0.00000000</i>
   <i name="MCALPHA">      0.00000000</i>
   <i name="ALDAX">      1.00000000</i>
   <i name="AGGAX">      1.00000000</i>
   <i name="ALDAC">      1.00000000</i>
   <i name="AGGAC">      1.00000000</i>
   <i type="int" name="NKREDX">     1</i>
   <i type="int" name="NKREDY">     1</i>
   <i type="int" name="NKREDZ">     1</i>
   <i type="logical" name="SHIFTRED"> F  </i>
   <i type="logical" name="ODDONLY"> F  </i>
   <i type="logical" name="EVENONLY"> F  </i>
   <i type="int" name="LMAXFOCK">     0</i>
   <i type="int" name="NMAXFOCKAE">     0</i>
   <i type="logical" name="LFOCKAEDFT"> F  </i>
   <i name="HFSCREEN">      0.00000000</i>
   <i name="HFSCREENC">      0.00000000</i>
   <i type="int" name="NBANDSGWLOW">     0</i>
  </separator>
  <separator name="vdW DFT" >
   <i type="logical" name="LUSE_VDW"> F  </i>
   <i name="Zab_VDW">     -0.84910000</i>
   <i name="PARAM1">      0.12340000</i>
   <i name="PARAM2">      1.00000000</i>
   <i name="PARAM3">      0.00000000</i>
  </separator>
  <separator name="model GW" >
   <i type="int" name="MODEL_GW">     0</i>
   <i name="MODEL_EPS0">    153.60000000</i>
   <i name="MODEL_ALPHA">      1.00000000</i>
  </separator>
  <separator name="linear response parameters" >
   <i type="logical" name="LEPSILON"> F  </i>
   <i type="logical" name="LRPA"> F  </i>
   <i type="logical" name="LNABLA"> F  </i>
   <i type="logical" name="LVEL"> F  </i>
   <i type="int" name="KINTER">     0</i>
   <i name="CSHIFT">      0.10000000</i>
   <i name="OMEGAMAX">     -1.00000000</i>
   <i name="DEG_THRESHOLD">      0.00200000</i>
   <i name="RTIME">     -0.10000000</i>
   <i name="WPLASMAI">      0.00000000</i>
   <v name="DFIELD">      0.00000000      0.00000000      0.00000000</v>
   <v name="WPLASMA">      0.00000000      0.00000000      0.00000000      0.00000000      0.00000000      0.00000000      0.00000000      0.00000000      0.00000000</v>
  </separator>
  <separator name="orbital magnetization" >
   <i type="logical" name="NUCIND"> F  </i>
   <v name="MAGPOS">      0.00000000      0.00000000      0.00000000</v>
   <i type="logical" name="LNICSALL"> T  </i>
   <i type="logical" name="ORBITALMAG"> F  </i>
   <i type="logical" name="LMAGBLOCH"> F  </i>
   <i type="logical" name="LCHIMAG"> F  </i>
   <i type="logical" name="LGAUGE"> T  </i>
   <i type="int" name="MAGATOM">     0</i>
   <v name="MAGDIPOL">      0.00000000      0.00000000      0.00000000</v>
   <v name="AVECCONST">      0.00000000      0.00000000      0.00000000</v>
  </separator>
  <separator name="response functions" >
   <i type="logical" name="LADDER"> F  </i>
   <i type="logical" name="LRPAFORCE"> F  </i>
   <i type="logical" name="LFXC"> F  </i>
   <i type="logical" name="LHARTREE"> T  </i>
   <i type="int" name="IBSE">     0</i>
   <v type="int" name="KPOINT">    -1     0     0     0</v>
   <i type="logical" name="LTCTE"> F  </i>
   <i type="logical" name="LTETE"> F  </i>
   <i type="logical" name="LTRIPLET"> F  </i>
   <i type="logical" name="LFXCEPS"> F  </i>
   <i type="logical" name="LFXHEG"> F  </i>
   <i type="int" name="NATURALO">     2</i>
   <i type="logical" name="L2ORDER"> F  </i>
   <i type="logical" name="LMP2LT"> F  </i>
   <i type="logical" name="LUSEW"> F  </i>
   <i name="ENCUTGW">     -2.00000000</i>
   <i name="ENCUTGWSOFT">     -2.00000000</i>
   <i name="ENCUTLF">     -1.00000000</i>
   <i type="int" name="LMAXMP2">    -1</i>
   <i name="SCISSOR">      0.00000000</i>
   <i type="int" name="NOMEGA">     0</i>
   <i type="int" name="NOMEGAR">     0</i>
   <i type="int" name="NBANDSGW">    -1</i>
   <i type="int" name="NBANDSO">    -1</i>
   <i type="int" name="NBANDSV">    -1</i>
   <i type="int" name="NELM">     1</i>
   <i type="int" name="NELMHF">     1</i>
   <i type="int" name="DIM">     3</i>
   <i type="int" name="ANTIRES">     0</i>
   <i name="OMEGAMAX">    -30.00000000</i>
   <i name="OMEGAMIN">    -30.00000000</i>
   <i name="OMEGATL">   -200.00000000</i>
   <i type="int" name="OMEGAGRID">   140</i>
   <i name="CSHIFT">     -0.10000000</i>
   <i type="logical" name="SELFENERGY"> F  </i>
   <i type="logical" name="LSPECTRAL"> F  </i>
   <i type="logical" name="LSPECTRALGW"> F  </i>
   <i type="logical" name="LSINGLES"> F  </i>
   <i type="logical" name="LFERMIGW"> F  </i>
   <i type="logical" name="ODDONLYGW"> F  </i>
   <i type="logical" name="EVENONLYGW"> F  </i>
   <i type="int" name="NKREDLFX">     1</i>
   <i type="int" name="NKREDLFY">     1</i>
   <i type="int" name="NKREDLFZ">     1</i>
   <i type="int" name="MAXMEM">  2800</i>
   <i type="int" name="TELESCOPE">     0</i>
   <i type="int" name="TAUPAR">     1</i>
   <i type="int" name="OMEGAPAR">    -1</i>
   <i name="LAMBDA">      1.00000000</i>
  </separator>
  <separator name="External order field" >
   <i name="OFIELD_KAPPA">      0.00000000</i>
   <v name="OFIELD_K">      0.00000000      0.00000000      0.00000000</v>
   <i name="OFIELD_Q6_NEAR">      0.00000000</i>
   <i name="OFIELD_Q6_FAR">      0.00000000</i>
   <i name="OFIELD_A">      0.00000000</i>
  </separator>
 </parameters>
 <atominfo>
  <atoms>       2 </atoms>
  <types>       2 </types>
  <array name="atoms" >
   <dimension dim="1">ion</dimension>
   <field type="string">element</field>
   <field type="int">atomtype</field>
   <set>
    <rc><c>O </c><c>   1</c></rc>
    <rc><c>C </c><c>   2</c></rc>
   </set>
  </array>
  <array name="atomtypes" >
   <dimension dim="1">type</dimension>
   <field type="int">atomspertype</field>
   <field type="string">element</field>
   <field>mass</field>
   <field>valence</field>
   <field type="string">pseudopotential</field>
   <set>
    <rc><c>   1</c><c>O </c><c>     16.00000000</c><c>      6.00000000</c><c> PAW_RPBE O 08Apr2002                   </c></rc>
    <rc><c>   1</c><c>C </c><c>     12.01100000</c><c>      4.00000000</c><c> PAW_RPBE C 08Apr2002                   </c></rc>
   </set>
  </array>
 </atominfo>
 <structure name="initialpos" >
  <crystal>
   <varray name="basis" >
    <v>       8.00000000       0.00000000       0.00000000 </v>
    <v>       0.00000000       8.00000000       0.00000000 </v>
    <v>       0.00000000       0.00000000       8.00000000 </v>
   </varray>
   <i name="volume">    512.00000000 </i>
   <varray name="rec_basis" >
    <v>       0.12500000       0.00000000       0.00000000 </v>
    <v>       0.00000000       0.12500000       0.00000000 </v>
    <v>       0.00000000       0.00000000       0.12500000 </v>
   </varray>
  </crystal>
  <varray name="positions" >
   <v>       0.00000000       0.00000000       0.00000000 </v>
   <v>       0.00000000       0.00000000       0.14000000 </v>
  </varray>
 </structure>
 <calculation>
  <scstep>
   <time name="dav">    0.03    0.03</time>
   <time name="total">    0.11    0.11</time>
   <energy>
    <i name="alphaZ">      0.85010715 </i>
    <i name="ewald">     55.03899630 </i>
    <i name="hartreedc">   -516.02856100 </i>
    <i name="XCdc">     39.95561961 </i>
    <i name="pawpsdc">    283.82984571 </i>
    <i name="pawaedc">   -286.83001101 </i>
    <i name="eentropy">     -0.00000143 </i>
    <i name="bandstr">    -83.15915765 </i>
    <i name="atom">    579.39041991 </i>
    <i name="e_fr_energy">     73.04725759 </i>
    <i name="e_wo_entrp">     73.04725902 </i>
    <i name="e_0_energy">     73.04725831 </i>
   </energy>
  </scstep>
  <scstep>
   <time name="dav">    0.05    0.05</time>
   <time name="total">    0.05    0.05</time>
   <energy>
    <i name="e_fr_energy">     -4.54285874 </i>
    <i name="e_wo_entrp">     -4.54285874 </i>
    <i name="e_0_energy">     -4.54285874 </i>
   </energy>
  </scstep>
  <scstep>
   <time name="dav">    0.05    0.05</time>
   <time name="total">    0.05    0.05</time>
   <energy>
    <i name="e_fr_energy">    -15.59530110 </i>
    <i name="e_wo_entrp">    -15.59530110 </i>
    <i name="e_0_energy">    -15.59530110 </i>
   </energy>
  </scstep>
  <scstep>
   <time name="dav">    0.05    0.05</time>
   <time name="total">    0.05    0.05</time>
   <energy>
    <i name="e_fr_energy">    -15.64729673 </i>
    <i name="e_wo_entrp">    -15.64729673 </i>
    <i name="e_0_energy">    -15.64729673 </i>
   </energy>
  </scstep>
  <scstep>
   <time name="dav">    0.04    0.04</time>
   <time name="total">    0.06    0.06</time>
   <energy>
    <i name="e_fr_energy">    -15.64732096 </i>
    <i name="e_wo_entrp">    -15.64732096 </i>
    <i name="e_0_energy">    -15.64732096 </i>
   </energy>
  </scstep>
  <scstep>
   <time name="dav">    0.05    0.05</time>
   <time name="total">    0.14    0.15</time>
   <energy>
    <i name="e_fr_energy">    -14.93483332 </i>
    <i name="e_wo_entrp">    -14.93483332 </i>
    <i name="e_0_energy">    -14.93483332 </i>
   </energy>
  </scstep>
  <scstep>
   <time name="dav">    0.05    0.05</time>
   <time name="total">    0.12    0.12</time>
   <energy>
    <i name="e_fr_energy">    -14.79519562 </i>
    <i name="e_wo_entrp">    -14.79519562 </i>
    <i name="e_0_energy">    -14.79519562 </i>
   </energy>
  </scstep>
  <scstep>
   <time name="dav">    0.04    0.04</time>
   <time name="total">    0.11    0.11</time>
   <energy>
    <i name="e_fr_energy">    -14.75987985 </i>
    <i name="e_wo_entrp">    -14.75987985 </i>
    <i name="e_0_energy">    -14.75987985 </i>
   </energy>
  </scstep>
  <scstep>
   <time name="dav">    0.03    0.03</time>
   <time name="total">    0.11    0.11</time>
   <energy>
    <i name="e_fr_energy">    -14.75893311 </i>
    <i name="e_wo_entrp">    -14.75893311 </i>
    <i name="e_0_energy">    -14.75893311 </i>
   </energy>
  </scstep>
  <scstep>
   <time name="dav">    0.03    0.03</time>
   <time name="total">    0.11    0.11</time>
   <energy>
    <i name="e_fr_energy">    -14.75997198 </i>
    <i name="e_wo_entrp">    -14.75997198 </i>
    <i name="e_0_energy">    -14.75997198 </i>
   </energy>
  </scstep>
  <scstep>
   <time name="dav">    0.03    0.03</time>
   <time name="total">    0.11    0.11</time>
   <energy>
    <i name="e_fr_energy">    -14.76234249 </i>
    <i name="e_wo_entrp">    -14.76234249 </i>
    <i name="e_0_energy">    -14.76234249 </i>
   </energy>
  </scstep>
  <scstep>
   <time name="dav">    0.04    0.04</time>
   <time name="total">    0.11    0.11</time>
   <energy>
    <i name="e_fr_energy">    -14.76295418 </i>
    <i name="e_wo_entrp">    -14.76295418 </i>
    <i name="e_0_energy">    -14.76295418 </i>
   </energy>
  </scstep>
  <scstep>
   <time name="dav">    0.04    0.04</time>
   <time name="total">    0.11    0.11</time>
   <energy>
    <i name="e_fr_energy">    -14.76383316 </i>
    <i name="e_wo_entrp">    -14.76383316 </i>
    <i name="e_0_energy">    -14.76383316 </i>
   </energy>
  </scstep>
  <scstep>
   <time name="dav">    0.04    0.04</time>
   <time name="total">    0.11    0.11</time>
   <energy>
    <i name="e_fr_energy">    -14.76398516 </i>
    <i name="e_wo_entrp">    -14.76398516 </i>
    <i name="e_0_energy">    -14.76398516 </i>
   </energy>
  </scstep>
  <scstep>
   <time name="dav">    0.04    0.04</time>
   <time name="total">    0.10    0.10</time>
   <energy>
    <i name="alphaZ">      0.85010715 </i>
    <i name="ewald">     55.03899630 </i>
    <i name="hartreedc">   -537.88851883 </i>
    <i name="XCdc">     41.24514291 </i>
    <i name="pawpsdc">    384.66219832 </i>
    <i name="pawaedc">   -387.80210575 </i>
    <i name="eentropy">     -0.00000000 </i>
    <i name="bandstr">   -150.26030220 </i>
    <i name="atom">    579.39041991 </i>
    <i name="e_fr_energy">    -14.76406220 </i>
    <i name="e_wo_entrp">    -14.76406220 </i>
    <i name="e_0_energy">    -14.76406220 </i>
   </energy>
  </scstep>
  <structure>
   <crystal>
    <varray name="basis" >
     <v>       8.00000000       0.00000000       0.00000000 </v>
     <v>       0.00000000       8.00000000       0.00000000 </v>
     <v>       0.00000000       0.00000000       8.00000000 </v>
    </varray>
    <i name="volume">    512.00000000 </i>
    <varray name="rec_basis" >
     <v>       0.12500000       0.00000000       0.00000000 </v>
     <v>       0.00000000       0.12500000       0.00000000 </v>
     <v>       0.00000000       0.00000000       0.12500000 </v>
    </varray>
   </crystal>
   <varray name="positions" >
    <v>       0.00000000       0.00000000       0.00000000 </v>
    <v>       0.00000000       0.00000000       0.14000000 </v>
   </varray>
  </structure>
  <varray name="forces" >
   <v>       0.00000000       0.00000000      -2.91513085 </v>
   <v>       0.00000000       0.00000000       2.91513085 </v>
  </varray>
  <varray name="stress" >
   <v>      -2.40794676       0.00000000       0.00000000 </v>
   <v>       0.00000000      -2.40794676       0.00000000 </v>
   <v>      -0.00000000       0.00000000       7.82356510 </v>
  </varray>
  <energy>
   <i name="e_fr_energy">    -14.76406220 </i>
   <i name="e_wo_entrp">    -14.76406220 </i>
   <i name="e_0_energy">     -0.00000000 </i>
  </energy>
  <time name="totalsc">    1.97    1.98</time>
 </calculation>
 <calculation>
  <scstep>
   <time name="dav">    0.03    0.03</time>
   <time name="total">    0.11    0.11</time>
   <energy>
    <i name="alphaZ">      0.85010715 </i>
    <i name="ewald">     -5.81966587 </i>
    <i name="hartreedc">   -497.79689482 </i>
    <i name="XCdc">     40.15465475 </i>
    <i name="pawpsdc">    384.65584720 </i>
    <i name="pawaedc">   -387.79577198 </i>
    <i name="eentropy">     -0.00000000 </i>
    <i name="bandstr">   -126.51804002 </i>
    <i name="atom">    579.39041991 </i>
    <i name="e_fr_energy">    -12.87934368 </i>
    <i name="e_wo_entrp">    -12.87934368 </i>
    <i name="e_0_energy">    -12.87934368 </i>
   </energy>
  </scstep>
  <scstep>
   <time name="dav">    0.03    0.03</time>
   <time name="total">    0.10    0.10</time>
   <energy>
    <i name="e_fr_energy">    -12.71003784 </i>
    <i name="e_wo_entrp">    -12.71003784 </i>
    <i name="e_0_energy">    -12.71003784 </i>
   </energy>
  </scstep>
  <scstep>
   <time name="dav">    0.04    0.04</time>
   <time name="total">    0.11    0.11</time>
   <energy>
    <i name="e_fr_energy">    -12.67835988 </i>
    <i name="e_wo_entrp">    -12.67835988 </i>
    <i name="e_0_energy">    -12.67835988 </i>
   </energy>
  </scstep>
  <scstep>
   <time name="dav">    0.04    0.04</time>
   <time name="total">    0.11    0.11</time>
   <energy>
    <i name="e_fr_energy">    -12.65295849 </i>
    <i name="e_wo_entrp">    -12.65295849 </i>
    <i name="e_0_energy">    -12.65295849 </i>
   </energy>
  </scstep>
  <scstep>
   <time name="dav">    0.04    0.04</time>
   <time name="total">    0.11    0.11</time>
   <energy>
    <i name="e_fr_energy">    -12.65674749 </i>
    <i name="e_wo_entrp">    -12.65674749 </i>
    <i name="e_0_energy">    -12.65674749 </i>
   </energy>
  </scstep>
  <scstep>
   <time name="dav">    0.03    0.03</time>
   <time name="total">    0.10    0.10</time>
   <energy>
    <i name="e_fr_energy">    -12.65833031 </i>
    <i name="e_wo_entrp">    -12.65833031 </i>
    <i name="e_0_energy">    -12.65833031 </i>
   </energy>
  </scstep>
  <scstep>
   <time name="dav">    0.03    0.03</time>
   <time name="total">    0.11    0.11</time>
   <energy>
    <i name="e_fr_energy">    -12.65930663 </i>
    <i name="e_wo_entrp">    -12.65930663 </i>
    <i name="e_0_energy">    -12.65930663 </i>
   </energy>
  </scstep>
  <scstep>
   <time name="dav">    0.03    0.03</time>
   <time name="total">    0.10    0.10</time>
   <energy>
    <i name="e_fr_energy">    -12.66031704 </i>
    <i name="e_wo_entrp">    -12.66031704 </i>
    <i name="e_0_energy">    -12.66031704 </i>
   </energy>
  </scstep>
  <scstep>
   <time name="dav">    0.03    0.03</time>
   <time name="total">    0.11    0.11</time>
   <energy>
    <i name="e_fr_energy">    -12.66058668 </i>
    <i name="e_wo_entrp">    -12.66058668 </i>
    <i name="e_0_energy">    -12.66058668 </i>
   </energy>
  </scstep>
  <scstep>
   <time name="dav">    0.03    0.03</time>
   <time name="total">    0.11    0.11</time>
   <energy>
    <i name="e_fr_energy">    -12.66070282 </i>
    <i name="e_wo_entrp">    -12.66070282 </i>
    <i name="e_0_energy">    -12.66070282 </i>
   </energy>
  </scstep>
  <scstep>
   <time name="dav">    0.04    0.04</time>
   <time name="total">    0.10    0.10</time>
   <energy>
    <i name="alphaZ">      0.85010715 </i>
    <i name="ewald">     -5.81966587 </i>
    <i name="hartreedc">   -487.53923229 </i>
    <i name="XCdc">     39.46001522 </i>
    <i name="pawpsdc">    321.15231741 </i>
    <i name="pawaedc">   -324.01631375 </i>
    <i name="eentropy">     -0.00000000 </i>
    <i name="bandstr">   -136.13838688 </i>
    <i name="atom">    579.39041991 </i>
    <i name="e_fr_energy">    -12.66073911 </i>
    <i name="e_wo_entrp">    -12.66073911 </i>
    <i name="e_0_energy">    -12.66073911 </i>
   </energy>
  </scstep>
  <structure>
   <crystal>
    <varray name="basis" >
     <v>       8.00000000       0.00000000       0.00000000 </v>
     <v>       0.00000000       8.00000000       0.00000000 </v>
     <v>       0.00000000       0.00000000       8.00000000 </v>
    </varray>
    <i name="volume">    512.00000000 </i>
    <varray name="rec_basis" >
     <v>       0.12500000       0.00000000       0.00000000 </v>
     <v>       0.00000000       0.12500000       0.00000000 </v>
     <v>       0.00000000       0.00000000       0.12500000 </v>
    </varray>
   </crystal>
   <varray name="positions" >
    <v>       0.00000000       0.00000000      -0.01757921 </v>
    <v>       0.00000000       0.00000000       0.15757921 </v>
   </varray>
  </structure>
  <varray name="forces" >
   <v>       0.00000000       0.00000000      12.23902063 </v>
   <v>       0.00000000      -0.00000000     -12.23902063 </v>
  </varray>
  <varray name="stress" >
   <v>      -2.45422613       0.00000000       0.00000000 </v>
   <v>      -0.00000000      -2.45422613       0.00000000 </v>
   <v>      -0.00000000       0.00000000     -55.82949936 </v>
  </varray>
  <energy>
   <i name="e_fr_energy">    -12.66073911 </i>
   <i name="e_wo_entrp">    -12.66073911 </i>
   <i name="e_0_energy">     -0.00000000 </i>
  </energy>
  <time name="totalsc">    1.33    1.33</time>
 </calculation>
 <calculation>
  <scstep>
   <time name="dav">    0.04    0.04</time>
   <time name="total">    0.11    0.11</time>
   <energy>
    <i name="alphaZ">      0.85010715 </i>
    <i name="ewald">     41.00564662 </i>
    <i name="hartreedc">   -518.17693503 </i>
    <i name="XCdc">     40.26951248 </i>
    <i name="pawpsdc">    321.13975565 </i>
    <i name="pawaedc">   -324.00382991 </i>
    <i name="eentropy">     -0.00000000 </i>
    <i name="bandstr">   -155.18531346 </i>
    <i name="atom">    579.39041991 </i>
    <i name="e_fr_energy">    -14.71063659 </i>
    <i name="e_wo_entrp">    -14.71063659 </i>
    <i name="e_0_energy">    -14.71063659 </i>
   </energy>
  </scstep>
  <scstep>
   <time name="dav">    0.03    0.03</time>
   <time name="total">    0.10    0.11</time>
   <energy>
    <i name="e_fr_energy">    -14.84230303 </i>
    <i name="e_wo_entrp">    -14.84230303 </i>
    <i name="e_0_energy">    -14.84230303 </i>
   </energy>
  </scstep>
  <scstep>
   <time name="dav">    0.04    0.04</time>
   <time name="total">    0.11    0.11</time>
   <energy>
    <i name="e_fr_energy">    -14.77162289 </i>
    <i name="e_wo_entrp">    -14.77162289 </i>
    <i name="e_0_energy">    -14.77162289 </i>
   </energy>
  </scstep>
  <scstep>
   <time name="dav">    0.03    0.03</time>
   <time name="total">    0.11    0.11</time>
   <energy>
    <i name="e_fr_energy">    -14.74377199 </i>
    <i name="e_wo_entrp">    -14.74377199 </i>
    <i name="e_0_energy">    -14.74377199 </i>
   </energy>
  </scstep>
  <scstep>
   <time name="dav">    0.03    0.03</time>
   <time name="total">    0.11    0.11</time>
   <energy>
    <i name="e_fr_energy">    -14.74336468 </i>
    <i name="e_wo_entrp">    -14.74336468 </i>
    <i name="e_0_energy">    -14.74336468 </i>
   </energy>
  </scstep>
  <scstep>
   <time name="dav">    0.04    0.04</time>
   <time name="total">    0.11    0.11</time>
   <energy>
    <i name="e_fr_energy">    -14.74467420 </i>
    <i name="e_wo_entrp">    -14.74467420 </i>
    <i name="e_0_energy">    -14.74467420 </i>
   </energy>
  </scstep>
  <scstep>
   <time name="dav">    0.04    0.04</time>
   <time name="total">    0.11    0.11</time>
   <energy>
    <i name="e_fr_energy">    -14.74559000 </i>
    <i name="e_wo_entrp">    -14.74559000 </i>
    <i name="e_0_energy">    -14.74559000 </i>
   </energy>
  </scstep>
  <scstep>
   <time name="dav">    0.03    0.03</time>
   <time name="total">    0.10    0.10</time>
   <energy>
    <i name="e_fr_energy">    -14.74735804 </i>
    <i name="e_wo_entrp">    -14.74735804 </i>
    <i name="e_0_energy">    -14.74735804 </i>
   </energy>
  </scstep>
  <scstep>
   <time name="dav">    0.04    0.04</time>
   <time name="total">    0.11    0.11</time>
   <energy>
    <i name="e_fr_energy">    -14.74761611 </i>
    <i name="e_wo_entrp">    -14.74761611 </i>
    <i name="e_0_energy">    -14.74761611 </i>
   </energy>
  </scstep>
  <scstep>
   <time name="dav">    0.03    0.03</time>
   <time name="total">    0.11    0.11</time>
   <energy>
    <i name="e_fr_energy">    -14.74785960 </i>
    <i name="e_wo_entrp">    -14.74785960 </i>
    <i name="e_0_energy">    -14.74785960 </i>
   </energy>
  </scstep>
  <scstep>
   <time name="dav">    0.04    0.05</time>
   <time name="total">    0.10    0.11</time>
   <energy>
    <i name="alphaZ">      0.85010715 </i>
    <i name="ewald">     41.00564662 </i>
    <i name="hartreedc">   -526.65701841 </i>
    <i name="XCdc">     40.82394984 </i>
    <i name="pawpsdc">    367.12557920 </i>
    <i name="pawaedc">   -370.18221758 </i>
    <i name="eentropy">     -0.00000000 </i>
    <i name="bandstr">   -147.10436417 </i>
    <i name="atom">    579.39041991 </i>
    <i name="e_fr_energy">    -14.74789743 </i>
    <i name="e_wo_entrp">    -14.74789743 </i>
    <i name="e_0_energy">    -14.74789743 </i>
   </energy>
  </scstep>
  <structure>
   <crystal>
    <varray name="basis" >
     <v>       8.00000000       0.00000000       0.00000000 </v>
     <v>       0.00000000       8.00000000       0.00000000 </v>
     <v>       0.00000000       0.00000000       8.00000000 </v>
    </varray>
    <i name="volume">    512.00000000 </i>
    <varray name="rec_basis" >
     <v>       0.12500000       0.00000000       0.00000000 </v>
     <v>       0.00000000       0.12500000       0.00000000 </v>
     <v>       0.00000000       0.00000000       0.12500000 </v>
    </varray>
   </crystal>
   <varray name="positions" >
    <v>       0.00000000       0.00000000      -0.00338163 </v>
    <v>       0.00000000       0.00000000       0.14338163 </v>
   </varray>
  </structure>
  <varray name="forces" >
   <v>       0.00000000       0.00000000       3.11949192 </v>
   <v>       0.00000000      -0.00000000      -3.11949192 </v>
  </varray>
  <varray name="stress" >
   <v>      -2.42744376      -0.00000000       0.00000000 </v>
   <v>      -0.00000000      -2.42744376      -0.00000000 </v>
   <v>       0.00000000       0.00000000     -13.71615003 </v>
  </varray>
  <energy>
   <i name="e_fr_energy">    -14.74789743 </i>
   <i name="e_wo_entrp">    -14.74789743 </i>
   <i name="e_0_energy">     -0.00000000 </i>
  </energy>
  <time name="totalsc">    1.35    1.35</time>
 </calculation>
 <calculation>
  <scstep>
   <time name="dav">    0.03    0.03</time>
   <time name="total">    0.11    0.11</time>
   <energy>
    <i name="alphaZ">      0.85010715 </i>
    <i name="ewald">     48.09108987 </i>
    <i name="hartreedc">   -530.85348493 </i>
    <i name="XCdc">     40.94686233 </i>
    <i name="pawpsdc">    367.12171047 </i>
    <i name="pawaedc">   -370.17829614 </i>
    <i name="eentropy">     -0.00000000 </i>
    <i name="bandstr">   -150.16783915 </i>
    <i name="atom">    579.39041991 </i>
    <i name="e_fr_energy">    -14.79943050 </i>
    <i name="e_wo_entrp">    -14.79943050 </i>
    <i name="e_0_energy">    -14.79943050 </i>
   </energy>
  </scstep>
  <scstep>
   <time name="dav">    0.03    0.03</time>
   <time name="total">    0.11    0.11</time>
   <energy>
    <i name="e_fr_energy">    -14.79844821 </i>
    <i name="e_wo_entrp">    -14.79844821 </i>
    <i name="e_0_energy">    -14.79844821 </i>
   </energy>
  </scstep>
  <scstep>
   <time name="dav">    0.03    0.03</time>
   <time name="total">    0.11    0.11</time>
   <energy>
    <i name="e_fr_energy">    -14.79684147 </i>
    <i name="e_wo_entrp">    -14.79684147 </i>
    <i name="e_0_energy">    -14.79684147 </i>
   </energy>
  </scstep>
  <scstep>
   <time name="dav">    0.04    0.04</time>
   <time name="total">    0.10    0.10</time>
   <energy>
    <i name="alphaZ">      0.85010715 </i>
    <i name="ewald">     48.09108987 </i>
    <i name="hartreedc">   -532.35159150 </i>
    <i name="XCdc">     41.03597455 </i>
    <i name="pawpsdc">    375.09176057 </i>
    <i name="pawaedc">   -378.18828542 </i>
    <i name="eentropy">     -0.00000000 </i>
    <i name="bandstr">   -148.71630192 </i>
    <i name="atom">    579.39041991 </i>
    <i name="e_fr_energy">    -14.79682681 </i>
    <i name="e_wo_entrp">    -14.79682681 </i>
    <i name="e_0_energy">    -14.79682681 </i>
   </energy>
  </scstep>
  <structure>
   <crystal>
    <varray name="basis" >
     <v>       8.00000000       0.00000000       0.00000000 </v>
     <v>       0.00000000       8.00000000       0.00000000 </v>
     <v>       0.00000000       0.00000000       8.00000000 </v>
    </varray>
    <i name="volume">    512.00000000 </i>
    <varray name="rec_basis" >
     <v>       0.12500000       0.00000000       0.00000000 </v>
     <v>       0.00000000       0.12500000       0.00000000 </v>
     <v>       0.00000000       0.00000000       0.12500000 </v>
    </varray>
   </crystal>
   <varray name="positions" >
    <v>       0.00000000       0.00000000      -0.00163355 </v>
    <v>       0.00000000       0.00000000       0.14163355 </v>
   </varray>
  </structure>
  <varray name="forces" >
   <v>      -0.00000000       0.00000000       0.28912055 </v>
   <v>       0.00000000      -0.00000000      -0.28912055 </v>
  </varray>
  <varray name="stress" >
   <v>      -2.40781328      -0.00000000       0.00000000 </v>
   <v>      -0.00000000      -2.40781328       0.00000000 </v>
   <v>       0.00000000      -0.00000000      -3.43279014 </v>
  </varray>
  <energy>
   <i name="e_fr_energy">    -14.79682681 </i>
   <i name="e_wo_entrp">    -14.79682681 </i>
   <i name="e_0_energy">     -0.00000000 </i>
  </energy>
  <time name="totalsc">    0.58    0.58</time>
  <eigenvalues>
   <array>
    <dimension dim="1">band</dimension>
    <dimension dim="2">kpoint</dimension>
    <dimension dim="3">spin</dimension>
    <field>eigene</field>
    <field>occ</field>
    <set>
     <set comment="spin 1">
      <set comment="kpoint 1">
       <r>  -28.9433    1.0000 </r>
       <r>  -13.7651    1.0000 </r>
       <r>  -11.4383    1.0000 </r>
       <r>  -11.4383    1.0000 </r>
       <r>   -8.7731    1.0000 </r>
       <r>   -1.8794    0.0000 </r>
       <r>   -1.8794    0.0000 </r>
       <r>   -0.3128    0.0000 </r>
       <r>    1.6876    0.0000 </r>
       <r>    1.8239    0.0000 </r>
       <r>    1.8239    0.0000 </r>
       <r>    1.8983    0.0000 </r>
      </set>
     </set>
    </set>
   </array>
  </eigenvalues>
  <separator name="orbital magnetization" >
   <v name="MAGDIPOLOUT">      0.00000000      0.00000000      0.00000000</v>
  </separator>
  <dos>
   <i name="efermi">     -7.82992107 </i>
   <total>
    <array>
     <dimension dim="1">gridpoints</dimension>
     <dimension dim="2">spin</dimension>
     <field>energy</field>
     <field>total</field>
     <field>integrated</field>
     <set>
      <set comment="spin 1">
       <r>   -30.9433     0.0000     0.0000 </r>
       <r>   -30.8272     0.0000     0.0000 </r>
       <r>   -30.7111     0.0000     0.0000 </r>
       <r>   -30.5949     0.0000     0.0000 </r>
       <r>   -30.4788     0.0000     0.0000 </r>
       <r>   -30.3626     0.0000     0.0000 </r>
       <r>   -30.2465     0.0000     0.0000 </r>
       <r>   -30.1304     0.0000     0.0000 </r>
       <r>   -30.0142     0.0000     0.0000 </r>
       <r>   -29.8981     0.0000     0.0000 </r>
       <r>   -29.7819     0.0000     0.0000 </r>
       <r>   -29.6658     0.0000     0.0000 </r>
       <r>   -29.5497     0.0002     0.0000 </r>
       <r>   -29.4335     0.0044     0.0005 </r>
       <r>   -29.3174     0.0658     0.0082 </r>
       <r>   -29.2013     0.5168     0.0682 </r>
       <r>   -29.0851     2.1345     0.3161 </r>
       <r>   -28.9690     4.6499     0.8561 </r>
       <r>   -28.8528     5.3526     1.4778 </r>
       <r>   -28.7367     3.2569     1.8560 </r>
       <r>   -28.6206     1.0463     1.9775 </r>
       <r>   -28.5044     0.1770     1.9981 </r>
       <r>   -28.3883     0.0157     1.9999 </r>
       <r>   -28.2721     0.0007     2.0000 </r>
       <r>   -28.1560     0.0000     2.0000 </r>
       <r>   -28.0399     0.0000     2.0000 </r>
       <r>   -27.9237     0.0000     2.0000 </r>
       <r>   -27.8076     0.0000     2.0000 </r>
       <r>   -27.6915     0.0000     2.0000 </r>
       <r>   -27.5753     0.0000     2.0000 </r>
       <r>   -27.4592     0.0000     2.0000 </r>
       <r>   -27.3430     0.0000     2.0000 </r>
       <r>   -27.2269     0.0000     2.0000 </r>
       <r>   -27.1108     0.0000     2.0000 </r>
       <r>   -26.9946     0.0000     2.0000 </r>
       <r>   -26.8785     0.0000     2.0000 </r>
       <r>   -26.7623     0.0000     2.0000 </r>
       <r>   -26.6462     0.0000     2.0000 </r>
       <r>   -26.5301     0.0000     2.0000 </r>
       <r>   -26.4139     0.0000     2.0000 </r>
       <r>   -26.2978     0.0000     2.0000 </r>
       <r>   -26.1816     0.0000     2.0000 </r>
       <r>   -26.0655     0.0000     2.0000 </r>
       <r>   -25.9494     0.0000     2.0000 </r>
       <r>   -25.8332     0.0000     2.0000 </r>
       <r>   -25.7171     0.0000     2.0000 </r>
       <r>   -25.6010     0.0000     2.0000 </r>
       <r>   -25.4848     0.0000     2.0000 </r>
       <r>   -25.3687     0.0000     2.0000 </r>
       <r>   -25.2525     0.0000     2.0000 </r>
       <r>   -25.1364     0.0000     2.0000 </r>
       <r>   -25.0203     0.0000     2.0000 </r>
       <r>   -24.9041     0.0000     2.0000 </r>
       <r>   -24.7880     0.0000     2.0000 </r>
       <r>   -24.6718     0.0000     2.0000 </r>
       <r>   -24.5557     0.0000     2.0000 </r>
       <r>   -24.4396     0.0000     2.0000 </r>
       <r>   -24.3234     0.0000     2.0000 </r>
       <r>   -24.2073     0.0000     2.0000 </r>
       <r>   -24.0912     0.0000     2.0000 </r>
       <r>   -23.9750     0.0000     2.0000 </r>
       <r>   -23.8589     0.0000     2.0000 </r>
       <r>   -23.7427     0.0000     2.0000 </r>
       <r>   -23.6266     0.0000     2.0000 </r>
       <r>   -23.5105     0.0000     2.0000 </r>
       <r>   -23.3943     0.0000     2.0000 </r>
       <r>   -23.2782     0.0000     2.0000 </r>
       <r>   -23.1620     0.0000     2.0000 </r>
       <r>   -23.0459     0.0000     2.0000 </r>
       <r>   -22.9298     0.0000     2.0000 </r>
       <r>   -22.8136     0.0000     2.0000 </r>
       <r>   -22.6975     0.0000     2.0000 </r>
       <r>   -22.5813     0.0000     2.0000 </r>
       <r>   -22.4652     0.0000     2.0000 </r>
       <r>   -22.3491     0.0000     2.0000 </r>
       <r>   -22.2329     0.0000     2.0000 </r>
       <r>   -22.1168     0.0000     2.0000 </r>
       <r>   -22.0007     0.0000     2.0000 </r>
       <r>   -21.8845     0.0000     2.0000 </r>
       <r>   -21.7684     0.0000     2.0000 </r>
       <r>   -21.6522     0.0000     2.0000 </r>
       <r>   -21.5361     0.0000     2.0000 </r>
       <r>   -21.4200     0.0000     2.0000 </r>
       <r>   -21.3038     0.0000     2.0000 </r>
       <r>   -21.1877     0.0000     2.0000 </r>
       <r>   -21.0715     0.0000     2.0000 </r>
       <r>   -20.9554     0.0000     2.0000 </r>
       <r>   -20.8393     0.0000     2.0000 </r>
       <r>   -20.7231     0.0000     2.0000 </r>
       <r>   -20.6070     0.0000     2.0000 </r>
       <r>   -20.4909     0.0000     2.0000 </r>
       <r>   -20.3747     0.0000     2.0000 </r>
       <r>   -20.2586     0.0000     2.0000 </r>
       <r>   -20.1424     0.0000     2.0000 </r>
       <r>   -20.0263     0.0000     2.0000 </r>
       <r>   -19.9102     0.0000     2.0000 </r>
       <r>   -19.7940     0.0000     2.0000 </r>
       <r>   -19.6779     0.0000     2.0000 </r>
       <r>   -19.5617     0.0000     2.0000 </r>
       <r>   -19.4456     0.0000     2.0000 </r>
       <r>   -19.3295     0.0000     2.0000 </r>
       <r>   -19.2133     0.0000     2.0000 </r>
       <r>   -19.0972     0.0000     2.0000 </r>
       <r>   -18.9810     0.0000     2.0000 </r>
       <r>   -18.8649     0.0000     2.0000 </r>
       <r>   -18.7488     0.0000     2.0000 </r>
       <r>   -18.6326     0.0000     2.0000 </r>
       <r>   -18.5165     0.0000     2.0000 </r>
       <r>   -18.4004     0.0000     2.0000 </r>
       <r>   -18.2842     0.0000     2.0000 </r>
       <r>   -18.1681     0.0000     2.0000 </r>
       <r>   -18.0519     0.0000     2.0000 </r>
       <r>   -17.9358     0.0000     2.0000 </r>
       <r>   -17.8197     0.0000     2.0000 </r>
       <r>   -17.7035     0.0000     2.0000 </r>
       <r>   -17.5874     0.0000     2.0000 </r>
       <r>   -17.4712     0.0000     2.0000 </r>
       <r>   -17.3551     0.0000     2.0000 </r>
       <r>   -17.2390     0.0000     2.0000 </r>
       <r>   -17.1228     0.0000     2.0000 </r>
       <r>   -17.0067     0.0000     2.0000 </r>
       <r>   -16.8906     0.0000     2.0000 </r>
       <r>   -16.7744     0.0000     2.0000 </r>
       <r>   -16.6583     0.0000     2.0000 </r>
       <r>   -16.5421     0.0000     2.0000 </r>
       <r>   -16.4260     0.0000     2.0000 </r>
       <r>   -16.3099     0.0000     2.0000 </r>
       <r>   -16.1937     0.0000     2.0000 </r>
       <r>   -16.0776     0.0000     2.0000 </r>
       <r>   -15.9614     0.0000     2.0000 </r>
       <r>   -15.8453     0.0000     2.0000 </r>
       <r>   -15.7292     0.0000     2.0000 </r>
       <r>   -15.6130     0.0000     2.0000 </r>
       <r>   -15.4969     0.0000     2.0000 </r>
       <r>   -15.3808     0.0000     2.0000 </r>
       <r>   -15.2646     0.0000     2.0000 </r>
       <r>   -15.1485     0.0000     2.0000 </r>
       <r>   -15.0323     0.0000     2.0000 </r>
       <r>   -14.9162     0.0000     2.0000 </r>
       <r>   -14.8001     0.0000     2.0000 </r>
       <r>   -14.6839     0.0000     2.0000 </r>
       <r>   -14.5678     0.0000     2.0000 </r>
       <r>   -14.4516     0.0000     2.0000 </r>
       <r>   -14.3355     0.0005     2.0001 </r>
       <r>   -14.2194     0.0109     2.0013 </r>
       <r>   -14.1032     0.1334     2.0168 </r>
       <r>   -13.9871     0.8587     2.1165 </r>
       <r>   -13.8709     2.9084     2.4543 </r>
       <r>   -13.7548     5.1995     3.0582 </r>
       <r>   -13.6387     4.9131     3.6288 </r>
       <r>   -13.5225     2.4535     3.9137 </r>
       <r>   -13.4064     0.6464     3.9888 </r>
       <r>   -13.2903     0.0896     3.9992 </r>
       <r>   -13.1741     0.0065     4.0000 </r>
       <r>   -13.0580     0.0002     4.0000 </r>
       <r>   -12.9418     0.0000     4.0000 </r>
       <r>   -12.8257     0.0000     4.0000 </r>
       <r>   -12.7096     0.0000     4.0000 </r>
       <r>   -12.5934     0.0000     4.0000 </r>
       <r>   -12.4773     0.0000     4.0000 </r>
       <r>   -12.3611     0.0000     4.0000 </r>
       <r>   -12.2450     0.0000     4.0000 </r>
       <r>   -12.1289     0.0000     4.0000 </r>
       <r>   -12.0127     0.0008     4.0001 </r>
       <r>   -11.8966     0.0197     4.0024 </r>
       <r>   -11.7805     0.2471     4.0311 </r>
       <r>   -11.6643     1.6264     4.2200 </r>
       <r>   -11.5482     5.6339     4.8743 </r>
       <r>   -11.4320    10.3000     6.0705 </r>
       <r>   -11.3159     9.9525     7.2264 </r>
       <r>   -11.1998     5.0824     7.8167 </r>
       <r>   -11.0836     1.3695     7.9757 </r>
       <r>   -10.9675     0.1942     7.9983 </r>
       <r>   -10.8513     0.0144     7.9999 </r>
       <r>   -10.7352     0.0006     8.0000 </r>
       <r>   -10.6191     0.0000     8.0000 </r>
       <r>   -10.5029     0.0000     8.0000 </r>
       <r>   -10.3868     0.0000     8.0000 </r>
       <r>   -10.2706     0.0000     8.0000 </r>
       <r>   -10.1545     0.0000     8.0000 </r>
       <r>   -10.0384     0.0000     8.0000 </r>
       <r>    -9.9222     0.0000     8.0000 </r>
       <r>    -9.8061     0.0000     8.0000 </r>
       <r>    -9.6900     0.0000     8.0000 </r>
       <r>    -9.5738     0.0000     8.0000 </r>
       <r>    -9.4577     0.0000     8.0000 </r>
       <r>    -9.3415     0.0005     8.0001 </r>
       <r>    -9.2254     0.0114     8.0014 </r>
       <r>    -9.1093     0.1384     8.0175 </r>
       <r>    -8.9931     0.8810     8.1198 </r>
       <r>    -8.8770     2.9523     8.4627 </r>
       <r>    -8.7608     5.2219     9.0691 </r>
       <r>    -8.6447     4.8819     9.6361 </r>
       <r>    -8.5286     2.4119     9.9162 </r>
       <r>    -8.4124     0.6287     9.9892 </r>
       <r>    -8.2963     0.0862     9.9993 </r>
       <r>    -8.1802     0.0062    10.0000 </r>
       <r>    -8.0640     0.0002    10.0000 </r>
       <r>    -7.9479     0.0000    10.0000 </r>
       <r>    -7.8317     0.0000    10.0000 </r>
       <r>    -7.7156     0.0000    10.0000 </r>
       <r>    -7.5995     0.0000    10.0000 </r>
       <r>    -7.4833     0.0000    10.0000 </r>
       <r>    -7.3672     0.0000    10.0000 </r>
       <r>    -7.2510     0.0000    10.0000 </r>
       <r>    -7.1349     0.0000    10.0000 </r>
       <r>    -7.0188     0.0000    10.0000 </r>
       <r>    -6.9026     0.0000    10.0000 </r>
       <r>    -6.7865     0.0000    10.0000 </r>
       <r>    -6.6703     0.0000    10.0000 </r>
       <r>    -6.5542     0.0000    10.0000 </r>
       <r>    -6.4381     0.0000    10.0000 </r>
       <r>    -6.3219     0.0000    10.0000 </r>
       <r>    -6.2058     0.0000    10.0000 </r>
       <r>    -6.0897     0.0000    10.0000 </r>
       <r>    -5.9735     0.0000    10.0000 </r>
       <r>    -5.8574     0.0000    10.0000 </r>
       <r>    -5.7412     0.0000    10.0000 </r>
       <r>    -5.6251     0.0000    10.0000 </r>
       <r>    -5.5090     0.0000    10.0000 </r>
       <r>    -5.3928     0.0000    10.0000 </r>
       <r>    -5.2767     0.0000    10.0000 </r>
       <r>    -5.1605     0.0000    10.0000 </r>
       <r>    -5.0444     0.0000    10.0000 </r>
       <r>    -4.9283     0.0000    10.0000 </r>
       <r>    -4.8121     0.0000    10.0000 </r>
       <r>    -4.6960     0.0000    10.0000 </r>
       <r>    -4.5799     0.0000    10.0000 </r>
       <r>    -4.4637     0.0000    10.0000 </r>
       <r>    -4.3476     0.0000    10.0000 </r>
       <r>    -4.2314     0.0000    10.0000 </r>
       <r>    -4.1153     0.0000    10.0000 </r>
       <r>    -3.9992     0.0000    10.0000 </r>
       <r>    -3.8830     0.0000    10.0000 </r>
       <r>    -3.7669     0.0000    10.0000 </r>
       <r>    -3.6507     0.0000    10.0000 </r>
       <r>    -3.5346     0.0000    10.0000 </r>
       <r>    -3.4185     0.0000    10.0000 </r>
       <r>    -3.3023     0.0000    10.0000 </r>
       <r>    -3.1862     0.0000    10.0000 </r>
       <r>    -3.0700     0.0000    10.0000 </r>
       <r>    -2.9539     0.0000    10.0000 </r>
       <r>    -2.8378     0.0000    10.0000 </r>
       <r>    -2.7216     0.0000    10.0000 </r>
       <r>    -2.6055     0.0000    10.0000 </r>
       <r>    -2.4894     0.0003    10.0000 </r>
       <r>    -2.3732     0.0080    10.0010 </r>
       <r>    -2.2571     0.1221    10.0151 </r>
       <r>    -2.1409     0.9785    10.1288 </r>
       <r>    -2.0248     4.1235    10.6077 </r>
       <r>    -1.9087     9.1643    11.6720 </r>
       <r>    -1.7925    10.7617    12.9219 </r>
       <r>    -1.6764     6.6801    13.6977 </r>
       <r>    -1.5602     2.1893    13.9519 </r>
       <r>    -1.4441     0.3779    13.9958 </r>
       <r>    -1.3280     0.0342    13.9998 </r>
       <r>    -1.2118     0.0016    14.0000 </r>
       <r>    -1.0957     0.0000    14.0000 </r>
       <r>    -0.9796     0.0000    14.0000 </r>
       <r>    -0.8634     0.0008    14.0001 </r>
       <r>    -0.7473     0.0175    14.0021 </r>
       <r>    -0.6311     0.1918    14.0244 </r>
       <r>    -0.5150     1.1061    14.1529 </r>
       <r>    -0.3989     3.3594    14.5430 </r>
       <r>    -0.2827     5.3869    15.1687 </r>
       <r>    -0.1666     4.5661    15.6990 </r>
       <r>    -0.0504     2.0450    15.9365 </r>
       <r>     0.0657     0.4830    15.9926 </r>
       <r>     0.1818     0.0600    15.9995 </r>
       <r>     0.2980     0.0039    16.0000 </r>
       <r>     0.4141     0.0001    16.0000 </r>
       <r>     0.5302     0.0000    16.0000 </r>
       <r>     0.6464     0.0000    16.0000 </r>
       <r>     0.7625     0.0000    16.0000 </r>
       <r>     0.8787     0.0000    16.0000 </r>
       <r>     0.9948     0.0000    16.0000 </r>
       <r>     1.1109     0.0004    16.0000 </r>
       <r>     1.2271     0.0098    16.0012 </r>
       <r>     1.3432     0.1305    16.0163 </r>
       <r>     1.4594     0.9650    16.1284 </r>
       <r>     1.5755     4.1351    16.6086 </r>
       <r>     1.6916    10.8310    17.8665 </r>
       <r>     1.8078    17.9036    19.9458 </r>
       <r>     1.9239    18.4683    22.0907 </r>
       <r>     2.0401    11.4333    23.4186 </r>
       <r>     2.1562     4.0878    23.8933 </r>
       <r>     2.2723     0.8216    23.9888 </r>
       <r>     2.3885     0.0911    23.9993 </r>
       <r>     2.5046     0.0055    24.0000 </r>
       <r>     2.6207     0.0002    24.0000 </r>
       <r>     2.7369     0.0000    24.0000 </r>
       <r>     2.8530     0.0000    24.0000 </r>
       <r>     2.9692     0.0000    24.0000 </r>
       <r>     3.0853     0.0000    24.0000 </r>
       <r>     3.2014     0.0000    24.0000 </r>
       <r>     3.3176     0.0000    24.0000 </r>
       <r>     3.4337     0.0000    24.0000 </r>
       <r>     3.5499     0.0000    24.0000 </r>
       <r>     3.6660     0.0000    24.0000 </r>
       <r>     3.7821     0.0000    24.0000 </r>
       <r>     3.8983     0.0000    24.0000 </r>
      </set>
     </set>
    </array>
   </total>
  </dos>
 </calculation>
 <structure name="finalpos" >
  <crystal>
   <varray name="basis" >
    <v>       8.00000000       0.00000000       0.00000000 </v>
    <v>       0.00000000       8.00000000       0.00000000 </v>
    <v>       0.00000000       0.00000000       8.00000000 </v>
   </varray>
   <i name="volume">    512.00000000 </i>
   <varray name="rec_basis" >
    <v>       0.12500000       0.00000000       0.00000000 </v>
    <v>       0.00000000       0.12500000       0.00000000 </v>
    <v>       0.00000000       0.00000000       0.12500000 </v>
   </varray>
  </crystal>
  <varray name="positions" >
   <v>       0.00000000       0.00000000      -0.00163355 </v>
   <v>       0.00000000       0.00000000       0.14163355 </v>
  </varray>
 </structure>
</modeling>
