CO dimer in a box                       
           1
     8.000000    0.000000    0.000000
     0.000000    8.000000    0.000000
     0.000000    0.000000    8.000000
   O    C 
   1   1
Direct configuration=     1
   0.00000000  0.00000000  0.00000000
   0.00000000  0.00000000  0.14000000
Direct configuration=     2
   0.00000000  0.00000000 -0.01757921
   0.00000000  0.00000000  0.15757921
Direct configuration=     3
   0.00000000  0.00000000 -0.00338163
   0.00000000  0.00000000  0.14338163
Direct configuration=     4
   0.00000000  0.00000000 -0.00163355
   0.00000000  0.00000000  0.14163355
