   3   3   0   0
  0.1667104E+03  0.7937700E-09  0.7937700E-09  0.7937700E-09  0.2000000E-16
   1.0000000000000000E-004
  CAR 
 H2O vibration                           
      3.74664686    -27.21693711  301     -6.05768172      1.00000000
    -27.217  0.0000E+00  0.0000E+00
    -27.114  0.0000E+00  0.0000E+00
    -27.011  0.0000E+00  0.0000E+00
    -26.907  0.0000E+00  0.0000E+00
    -26.804  0.0000E+00  0.0000E+00
    -26.701  0.0000E+00  0.0000E+00
    -26.598  0.0000E+00  0.0000E+00
    -26.494  0.0000E+00  0.0000E+00
    -26.391  0.1474E-16  0.1521E-17
    -26.288  0.4804E-14  0.4973E-15
    -26.185  0.1018E-11  0.1055E-12
    -26.082  0.1278E-09  0.1330E-10
    -25.978  0.9523E-08  0.9962E-09
    -25.875  0.4214E-06  0.4449E-07
    -25.772  0.1110E-04  0.1190E-05
    -25.669  0.1742E-03  0.1916E-04
    -25.566  0.1633E-02  0.1877E-03
    -25.462  0.9158E-02  0.1133E-02
    -25.359  0.3079E-01  0.4311E-02
    -25.256  0.6214E-01  0.1072E-01
    -25.153  0.7532E-01  0.1850E-01
    -25.049  0.5485E-01  0.2416E-01
    -24.946  0.2399E-01  0.2664E-01
    -24.843  0.6296E-02  0.2728E-01
    -24.740  0.9899E-03  0.2739E-01
    -24.637  0.9310E-04  0.2740E-01
    -24.533  0.5227E-05  0.2740E-01
    -24.430  0.1748E-06  0.2740E-01
    -24.327  0.3479E-08  0.2740E-01
    -24.224  0.4110E-10  0.2740E-01
    -24.121  0.2879E-12  0.2740E-01
    -24.017  0.1179E-14  0.2740E-01
    -23.914  0.0000E+00  0.2740E-01
    -23.811  0.0000E+00  0.2740E-01
    -23.708  0.0000E+00  0.2740E-01
    -23.605  0.0000E+00  0.2740E-01
    -23.501  0.0000E+00  0.2740E-01
    -23.398  0.0000E+00  0.2740E-01
    -23.295  0.0000E+00  0.2740E-01
    -23.192  0.0000E+00  0.2740E-01
    -23.088  0.0000E+00  0.2740E-01
    -22.985  0.0000E+00  0.2740E-01
    -22.882  0.0000E+00  0.2740E-01
    -22.779  0.0000E+00  0.2740E-01
    -22.676  0.0000E+00  0.2740E-01
    -22.572  0.0000E+00  0.2740E-01
    -22.469  0.0000E+00  0.2740E-01
    -22.366  0.0000E+00  0.2740E-01
    -22.263  0.0000E+00  0.2740E-01
    -22.160  0.0000E+00  0.2740E-01
    -22.056  0.0000E+00  0.2740E-01
    -21.953  0.0000E+00  0.2740E-01
    -21.850  0.0000E+00  0.2740E-01
    -21.747  0.0000E+00  0.2740E-01
    -21.643  0.0000E+00  0.2740E-01
    -21.540  0.0000E+00  0.2740E-01
    -21.437  0.0000E+00  0.2740E-01
    -21.334  0.0000E+00  0.2740E-01
    -21.231  0.0000E+00  0.2740E-01
    -21.127  0.0000E+00  0.2740E-01
    -21.024  0.0000E+00  0.2740E-01
    -20.921  0.0000E+00  0.2740E-01
    -20.818  0.0000E+00  0.2740E-01
    -20.715  0.0000E+00  0.2740E-01
    -20.611  0.0000E+00  0.2740E-01
    -20.508  0.0000E+00  0.2740E-01
    -20.405  0.0000E+00  0.2740E-01
    -20.302  0.0000E+00  0.2740E-01
    -20.199  0.0000E+00  0.2740E-01
    -20.095  0.0000E+00  0.2740E-01
    -19.992  0.0000E+00  0.2740E-01
    -19.889  0.0000E+00  0.2740E-01
    -19.786  0.0000E+00  0.2740E-01
    -19.682  0.0000E+00  0.2740E-01
    -19.579  0.0000E+00  0.2740E-01
    -19.476  0.0000E+00  0.2740E-01
    -19.373  0.0000E+00  0.2740E-01
    -19.270  0.0000E+00  0.2740E-01
    -19.166  0.0000E+00  0.2740E-01
    -19.063  0.0000E+00  0.2740E-01
    -18.960  0.0000E+00  0.2740E-01
    -18.857  0.0000E+00  0.2740E-01
    -18.754  0.0000E+00  0.2740E-01
    -18.650  0.0000E+00  0.2740E-01
    -18.547  0.0000E+00  0.2740E-01
    -18.444  0.0000E+00  0.2740E-01
    -18.341  0.0000E+00  0.2740E-01
    -18.237  0.0000E+00  0.2740E-01
    -18.134  0.0000E+00  0.2740E-01
    -18.031  0.0000E+00  0.2740E-01
    -17.928  0.0000E+00  0.2740E-01
    -17.825  0.0000E+00  0.2740E-01
    -17.721  0.0000E+00  0.2740E-01
    -17.618  0.0000E+00  0.2740E-01
    -17.515  0.0000E+00  0.2740E-01
    -17.412  0.0000E+00  0.2740E-01
    -17.309  0.0000E+00  0.2740E-01
    -17.205  0.0000E+00  0.2740E-01
    -17.102  0.0000E+00  0.2740E-01
    -16.999  0.0000E+00  0.2740E-01
    -16.896  0.0000E+00  0.2740E-01
    -16.793  0.0000E+00  0.2740E-01
    -16.689  0.0000E+00  0.2740E-01
    -16.586  0.0000E+00  0.2740E-01
    -16.483  0.0000E+00  0.2740E-01
    -16.380  0.0000E+00  0.2740E-01
    -16.276  0.0000E+00  0.2740E-01
    -16.173  0.0000E+00  0.2740E-01
    -16.070  0.0000E+00  0.2740E-01
    -15.967  0.0000E+00  0.2740E-01
    -15.864  0.0000E+00  0.2740E-01
    -15.760  0.0000E+00  0.2740E-01
    -15.657  0.0000E+00  0.2740E-01
    -15.554  0.0000E+00  0.2740E-01
    -15.451  0.0000E+00  0.2740E-01
    -15.348  0.0000E+00  0.2740E-01
    -15.244  0.0000E+00  0.2740E-01
    -15.141  0.0000E+00  0.2740E-01
    -15.038  0.0000E+00  0.2740E-01
    -14.935  0.0000E+00  0.2740E-01
    -14.832  0.0000E+00  0.2740E-01
    -14.728  0.0000E+00  0.2740E-01
    -14.625  0.0000E+00  0.2740E-01
    -14.522  0.0000E+00  0.2740E-01
    -14.419  0.0000E+00  0.2740E-01
    -14.315  0.0000E+00  0.2740E-01
    -14.212  0.0000E+00  0.2740E-01
    -14.109  0.1474E-16  0.2740E-01
    -14.006  0.6837E-14  0.2740E-01
    -13.903  0.1402E-11  0.2740E-01
    -13.799  0.1704E-09  0.2740E-01
    -13.696  0.1228E-07  0.2740E-01
    -13.593  0.5259E-06  0.2740E-01
    -13.490  0.1340E-04  0.2740E-01
    -13.387  0.2036E-03  0.2742E-01
    -13.283  0.1848E-02  0.2761E-01
    -13.180  0.1004E-01  0.2865E-01
    -13.077  0.3267E-01  0.3202E-01
    -12.974  0.6385E-01  0.3861E-01
    -12.870  0.7495E-01  0.4634E-01
    -12.767  0.5285E-01  0.5180E-01
    -12.664  0.2239E-01  0.5411E-01
    -12.561  0.5688E-02  0.5470E-01
    -12.458  0.8659E-03  0.5479E-01
    -12.354  0.7883E-04  0.5479E-01
    -12.251  0.4284E-05  0.5479E-01
    -12.148  0.1387E-06  0.5479E-01
    -12.045  0.2670E-08  0.5479E-01
    -11.942  0.3052E-10  0.5479E-01
    -11.838  0.2069E-12  0.5479E-01
    -11.735  0.8252E-15  0.5479E-01
    -11.632  0.0000E+00  0.5479E-01
    -11.529  0.0000E+00  0.5479E-01
    -11.426  0.0000E+00  0.5479E-01
    -11.322  0.0000E+00  0.5479E-01
    -11.219  0.0000E+00  0.5479E-01
    -11.116  0.0000E+00  0.5479E-01
    -11.013  0.0000E+00  0.5479E-01
    -10.909  0.0000E+00  0.5479E-01
    -10.806  0.0000E+00  0.5479E-01
    -10.703  0.0000E+00  0.5479E-01
    -10.600  0.0000E+00  0.5479E-01
    -10.497  0.0000E+00  0.5479E-01
    -10.393  0.0000E+00  0.5479E-01
    -10.290  0.5894E-16  0.5479E-01
    -10.187  0.1736E-13  0.5479E-01
    -10.084  0.3262E-11  0.5479E-01
     -9.981  0.3631E-09  0.5479E-01
     -9.877  0.2397E-07  0.5479E-01
     -9.774  0.9406E-06  0.5479E-01
     -9.671  0.2197E-04  0.5480E-01
     -9.568  0.3060E-03  0.5483E-01
     -9.464  0.2547E-02  0.5509E-01
     -9.361  0.1269E-01  0.5640E-01
     -9.258  0.3790E-01  0.6031E-01
     -9.155  0.6798E-01  0.6733E-01
     -9.052  0.7323E-01  0.7489E-01
     -8.948  0.4740E-01  0.7978E-01
     -8.845  0.1842E-01  0.8168E-01
     -8.742  0.4295E-02  0.8212E-01
     -8.639  0.5997E-03  0.8219E-01
     -8.536  0.5006E-04  0.8219E-01
     -8.432  0.2494E-05  0.8219E-01
     -8.329  0.7398E-07  0.8219E-01
     -8.226  0.1305E-08  0.8219E-01
     -8.123  0.1366E-10  0.8219E-01
     -8.020  0.6887E-12  0.8219E-01
     -7.916  0.8002E-10  0.8219E-01
     -7.813  0.6287E-08  0.8219E-01
     -7.710  0.2933E-06  0.8219E-01
     -7.607  0.8142E-05  0.8219E-01
     -7.503  0.1347E-03  0.8221E-01
     -7.400  0.1331E-02  0.8234E-01
     -7.297  0.7865E-02  0.8316E-01
     -7.194  0.2786E-01  0.8603E-01
     -7.091  0.5921E-01  0.9214E-01
     -6.987  0.7560E-01  0.9994E-01
     -6.884  0.5799E-01  0.1059E+00
     -6.781  0.2672E-01  0.1087E+00
     -6.678  0.7386E-02  0.1094E+00
     -6.575  0.1224E-02  0.1096E+00
     -6.471  0.1213E-03  0.1096E+00
     -6.368  0.7176E-05  0.1096E+00
     -6.265  0.2531E-06  0.1096E+00
     -6.162  0.5310E-08  0.1096E+00
     -6.058  0.6615E-10  0.1096E+00
     -5.955  0.4887E-12  0.1096E+00
     -5.852  0.2122E-14  0.1096E+00
     -5.749  0.0000E+00  0.1096E+00
     -5.646  0.0000E+00  0.1096E+00
     -5.542  0.0000E+00  0.1096E+00
     -5.439  0.0000E+00  0.1096E+00
     -5.336  0.0000E+00  0.1096E+00
     -5.233  0.0000E+00  0.1096E+00
     -5.130  0.0000E+00  0.1096E+00
     -5.026  0.0000E+00  0.1096E+00
     -4.923  0.0000E+00  0.1096E+00
     -4.820  0.0000E+00  0.1096E+00
     -4.717  0.0000E+00  0.1096E+00
     -4.614  0.0000E+00  0.1096E+00
     -4.510  0.0000E+00  0.1096E+00
     -4.407  0.0000E+00  0.1096E+00
     -4.304  0.0000E+00  0.1096E+00
     -4.201  0.0000E+00  0.1096E+00
     -4.097  0.0000E+00  0.1096E+00
     -3.994  0.0000E+00  0.1096E+00
     -3.891  0.0000E+00  0.1096E+00
     -3.788  0.0000E+00  0.1096E+00
     -3.685  0.0000E+00  0.1096E+00
     -3.581  0.0000E+00  0.1096E+00
     -3.478  0.0000E+00  0.1096E+00
     -3.375  0.0000E+00  0.1096E+00
     -3.272  0.0000E+00  0.1096E+00
     -3.169  0.0000E+00  0.1096E+00
     -3.065  0.0000E+00  0.1096E+00
     -2.962  0.0000E+00  0.1096E+00
     -2.859  0.0000E+00  0.1096E+00
     -2.756  0.0000E+00  0.1096E+00
     -2.652  0.0000E+00  0.1096E+00
     -2.549  0.0000E+00  0.1096E+00
     -2.446  0.0000E+00  0.1096E+00
     -2.343  0.0000E+00  0.1096E+00
     -2.240  0.1474E-16  0.1096E+00
     -2.136  0.4288E-14  0.1096E+00
     -2.033  0.9194E-12  0.1096E+00
     -1.930  0.1167E-09  0.1096E+00
     -1.827  0.8785E-08  0.1096E+00
     -1.724  0.3928E-06  0.1096E+00
     -1.620  0.1045E-04  0.1096E+00
     -1.517  0.1657E-03  0.1096E+00
     -1.414  0.1569E-02  0.1098E+00
     -1.311  0.8894E-02  0.1107E+00
     -1.208  0.3021E-01  0.1138E+00
     -1.104  0.6158E-01  0.1202E+00
     -1.001  0.7540E-01  0.1279E+00
     -0.898  0.5547E-01  0.1337E+00
     -0.795  0.2451E-01  0.1362E+00
     -0.691  0.6498E-02  0.1369E+00
     -0.588  0.1032E-02  0.1370E+00
     -0.485  0.9807E-04  0.1370E+00
     -0.382  0.5563E-05  0.1370E+00
     -0.279  0.1880E-06  0.1370E+00
     -0.175  0.3780E-08  0.1370E+00
     -0.072  0.4512E-10  0.1370E+00
      0.031  0.3199E-12  0.1370E+00
      0.134  0.1537E-12  0.1370E+00
      0.237  0.2321E-10  0.1370E+00
      0.341  0.2098E-08  0.1370E+00
      0.444  0.1127E-06  0.1370E+00
      0.547  0.3615E-05  0.1370E+00
      0.650  0.6945E-04  0.1370E+00
      0.754  0.8048E-03  0.1371E+00
      0.857  0.5679E-02  0.1377E+00
      0.960  0.2475E-01  0.1402E+00
      1.063  0.6784E-01  0.1472E+00
      1.166  0.1195E+00  0.1596E+00
      1.270  0.1376E+00  0.1738E+00
      1.373  0.1050E+00  0.1846E+00
      1.476  0.5744E-01  0.1905E+00
      1.579  0.4004E-01  0.1947E+00
      1.682  0.5800E-01  0.2006E+00
      1.786  0.7570E-01  0.2085E+00
      1.889  0.6216E-01  0.2149E+00
      1.992  0.3079E-01  0.2180E+00
      2.095  0.9158E-02  0.2190E+00
      2.198  0.1633E-02  0.2192E+00
      2.302  0.1742E-03  0.2192E+00
      2.405  0.1110E-04  0.2192E+00
      2.508  0.4214E-06  0.2192E+00
      2.611  0.9523E-08  0.2192E+00
      2.715  0.1278E-09  0.2192E+00
      2.818  0.1018E-11  0.2192E+00
      2.921  0.4833E-14  0.2192E+00
      3.024  0.0000E+00  0.2192E+00
      3.127  0.0000E+00  0.2192E+00
      3.231  0.0000E+00  0.2192E+00
      3.334  0.0000E+00  0.2192E+00
      3.437  0.0000E+00  0.2192E+00
      3.540  0.0000E+00  0.2192E+00
      3.643  0.0000E+00  0.2192E+00
      3.747  0.0000E+00  0.2192E+00
