    3    3   73    1
  0.1667104E+03  0.7937700E-09  0.7937700E-09  0.7937700E-09  0.2000000E-16
   1.0000000000000000E-004
  CAR 
 H2O vibration                           
      8      1      8

  0.0000000E+00  0.0000000E+00  0.0000000E+00  0.1000000E+01
    1      -25.216937   1.000000
    2      -12.941224   1.000000
    3       -9.139755   1.000000
    4       -7.041120   1.000000
    5       -1.063287   0.000000
    6        1.139892   0.000000
    7        1.261993   0.000000
    8        1.746647   0.000000
