       N       E                     dE             d eps       ncg     rms          rms(c)
DAV:   1     0.650233363569E+02    0.65023E+02   -0.16219E+03    16   0.444E+02
DAV:   2    -0.787838318713E+01   -0.72902E+02   -0.72897E+02    32   0.106E+02
DAV:   3    -0.161303380778E+02   -0.82520E+01   -0.82520E+01    16   0.663E+01
DAV:   4    -0.162428605836E+02   -0.11252E+00   -0.11252E+00    32   0.802E+00
DAV:   5    -0.162428745126E+02   -0.13929E-04   -0.13929E-04    32   0.865E-02    0.768E+00
DAV:   6    -0.143801736433E+02    0.18627E+01   -0.92656E+00    16   0.213E+01    0.302E+00
DAV:   7    -0.142774047444E+02    0.10277E+00   -0.99674E-02    32   0.264E+00    0.188E+00
DAV:   8    -0.142008270945E+02    0.76578E-01   -0.73256E-02    24   0.267E+00    0.225E-01
DAV:   9    -0.142060440184E+02   -0.52169E-02   -0.42808E-03    24   0.412E-01    0.135E-01
DAV:  10    -0.142143179410E+02   -0.82739E-02   -0.38941E-03    16   0.544E-01    0.647E-02
DAV:  11    -0.142216019116E+02   -0.72840E-02   -0.49106E-03    16   0.389E-01    0.949E-02
DAV:  12    -0.142224232075E+02   -0.82130E-03   -0.11293E-03    32   0.221E-01    0.239E-02
DAV:  13    -0.142234564084E+02   -0.10332E-02   -0.14970E-04    24   0.873E-02    0.104E-02
DAV:  14    -0.142236269379E+02   -0.17053E-03   -0.10522E-05    32   0.203E-02    0.461E-03
DAV:  15    -0.142237458555E+02   -0.11892E-03   -0.11708E-05    32   0.182E-02    0.613E-04
DAV:  16    -0.142237533530E+02   -0.74975E-05   -0.54840E-07    24   0.420E-03
   1 F= -.14223753E+02 E0= -.14223753E+02  d E =-.126544E-11
       N       E                     dE             d eps       ncg     rms          rms(c)
DAV:   1    -0.142148366567E+02    0.89092E-02   -0.22844E+00    16   0.156E+01    0.369E-01
DAV:   2    -0.142152743977E+02   -0.43774E-03   -0.34194E-02    24   0.179E+00    0.154E-01
DAV:   3    -0.142151988690E+02    0.75529E-04   -0.53871E-04    24   0.228E-01    0.749E-02
DAV:   4    -0.142153136329E+02   -0.11476E-03   -0.27888E-04    16   0.169E-01    0.127E-02
DAV:   5    -0.142153324076E+02   -0.18775E-04   -0.21934E-05    24   0.422E-02    0.589E-03
DAV:   6    -0.142153469863E+02   -0.14579E-04   -0.23969E-06    16   0.151E-02    0.181E-03
DAV:   7    -0.142153607053E+02   -0.13719E-04   -0.16207E-06    32   0.923E-03    0.146E-03
DAV:   8    -0.142153736304E+02   -0.12925E-04   -0.12248E-06    16   0.553E-03    0.626E-04
DAV:   9    -0.142153790357E+02   -0.54053E-05   -0.27600E-07    32   0.243E-03
   2 F= -.14215379E+02 E0= -.14215379E+02  d E =-.400516E-11
       N       E                     dE             d eps       ncg     rms          rms(c)
DAV:   1    -0.142150188222E+02    0.35481E-03   -0.90543E+00    16   0.309E+01    0.798E-01
DAV:   2    -0.142158365123E+02   -0.81769E-03   -0.15248E-01    24   0.363E+00    0.308E-01
DAV:   3    -0.142149602395E+02    0.87627E-03   -0.22596E-03    16   0.446E-01    0.170E-01
DAV:   4    -0.142154532364E+02   -0.49300E-03   -0.18288E-03    24   0.423E-01    0.279E-02
DAV:   5    -0.142155467372E+02   -0.93501E-04   -0.29273E-04    16   0.155E-01    0.174E-02
DAV:   6    -0.142155599056E+02   -0.13168E-04   -0.15457E-05    24   0.333E-02    0.817E-03
DAV:   7    -0.142155968409E+02   -0.36935E-04   -0.13287E-05    16   0.248E-02    0.301E-03
DAV:   8    -0.142156294592E+02   -0.32618E-04   -0.42253E-06    32   0.115E-02    0.119E-03
DAV:   9    -0.142156477886E+02   -0.18329E-04   -0.20168E-06    16   0.649E-03    0.991E-04
DAV:  10    -0.142156562488E+02   -0.84602E-05   -0.10531E-06    16   0.540E-03
   3 F= -.14215656E+02 E0= -.14215656E+02  d E =-.147074E-11
       N       E                     dE             d eps       ncg     rms          rms(c)
DAV:   1    -0.142102547018E+02    0.53931E-02   -0.45740E+00    16   0.223E+01    0.454E-01
DAV:   2    -0.142112066877E+02   -0.95199E-03   -0.53695E-02    24   0.238E+00    0.239E-01
DAV:   3    -0.142109115529E+02    0.29513E-03   -0.31529E-03    24   0.535E-01    0.795E-02
DAV:   4    -0.142110623487E+02   -0.15080E-03   -0.46785E-04    24   0.197E-01    0.297E-02
DAV:   5    -0.142111349228E+02   -0.72574E-04   -0.38303E-05    16   0.608E-02    0.104E-02
DAV:   6    -0.142111744555E+02   -0.39533E-04   -0.68427E-06    16   0.253E-02    0.338E-03
DAV:   7    -0.142111987985E+02   -0.24343E-04   -0.41951E-06    32   0.146E-02    0.236E-03
DAV:   8    -0.142112243115E+02   -0.25513E-04   -0.20302E-06    16   0.731E-03    0.141E-03
DAV:   9    -0.142112358831E+02   -0.11572E-04   -0.10779E-06    24   0.560E-03    0.626E-04
DAV:  10    -0.142112405796E+02   -0.46965E-05   -0.22434E-07    16   0.279E-03
   4 F= -.14211241E+02 E0= -.14211241E+02  d E =-.247741E-11
       N       E                     dE             d eps       ncg     rms          rms(c)
DAV:   1    -0.142090451529E+02    0.21907E-02   -0.91649E+00    16   0.311E+01    0.601E-01
DAV:   2    -0.142117411989E+02   -0.26960E-02   -0.10212E-01    16   0.317E+00    0.347E-01
DAV:   3    -0.142105149789E+02    0.12262E-02   -0.82811E-03    16   0.934E-01    0.818E-02
DAV:   4    -0.142108887605E+02   -0.37378E-03   -0.12212E-03    24   0.303E-01    0.321E-02
DAV:   5    -0.142109986357E+02   -0.10988E-03   -0.35616E-05    16   0.553E-02    0.159E-02
DAV:   6    -0.142111092733E+02   -0.11064E-03   -0.12106E-05    16   0.312E-02    0.290E-03
DAV:   7    -0.142111633500E+02   -0.54077E-04   -0.48082E-06    16   0.144E-02    0.233E-03
DAV:   8    -0.142112248871E+02   -0.61537E-04   -0.10019E-05    16   0.172E-02    0.623E-04
DAV:   9    -0.142112321134E+02   -0.72264E-05   -0.50413E-07    32   0.409E-03
   5 F= -.14211232E+02 E0= -.14211232E+02  d E =-.258807E-11
       N       E                     dE             d eps       ncg     rms          rms(c)
DAV:   1    -0.142179739470E+02   -0.67491E-02   -0.26851E+00    16   0.169E+01    0.336E-01
DAV:   2    -0.142201276378E+02   -0.21537E-02   -0.47277E-02    24   0.200E+00    0.206E-01
DAV:   3    -0.142196001540E+02    0.52748E-03   -0.13148E-03    16   0.384E-01    0.924E-02
DAV:   4    -0.142197694739E+02   -0.16932E-03   -0.76625E-04    32   0.272E-01    0.189E-02
DAV:   5    -0.142198182034E+02   -0.48730E-04   -0.65671E-05    24   0.757E-02    0.647E-03
DAV:   6    -0.142198376434E+02   -0.19440E-04   -0.26766E-06    32   0.152E-02    0.229E-03
DAV:   7    -0.142198535307E+02   -0.15887E-04   -0.93824E-07    16   0.667E-03    0.101E-03
DAV:   8    -0.142198766309E+02   -0.23100E-04   -0.24497E-06    16   0.755E-03    0.110E-03
DAV:   9    -0.142198834898E+02   -0.68589E-05   -0.49444E-07    32   0.363E-03
   6 F= -.14219883E+02 E0= -.14219883E+02  d E =-.185319E-11
       N       E                     dE             d eps       ncg     rms          rms(c)
DAV:   1    -0.142205999633E+02   -0.72333E-03   -0.55970E-01    16   0.695E+00    0.329E-01
DAV:   2    -0.142194991632E+02    0.11008E-02   -0.94800E-03    32   0.839E-01    0.167E-01
DAV:   3    -0.142195375370E+02   -0.38374E-04   -0.40326E-04    16   0.191E-01    0.748E-02
DAV:   4    -0.142196313216E+02   -0.93785E-04   -0.12907E-04    32   0.113E-01    0.130E-02
DAV:   5    -0.142196613730E+02   -0.30051E-04   -0.24654E-05    32   0.382E-02    0.589E-03
DAV:   6    -0.142197094628E+02   -0.48090E-04   -0.80066E-06    24   0.199E-02    0.171E-03
DAV:   7    -0.142197363883E+02   -0.26926E-04   -0.18683E-06    32   0.777E-03    0.122E-03
DAV:   8    -0.142197605983E+02   -0.24210E-04   -0.22979E-06    32   0.791E-03    0.516E-04
DAV:   9    -0.142197697608E+02   -0.91625E-05   -0.63153E-07    32   0.381E-03
   7 F= -.14219770E+02 E0= -.14219770E+02  d E =-.245559E-11
       N       E                     dE             d eps       ncg     rms          rms(c)
DAV:   1    -0.142163667509E+02    0.33938E-02   -0.25344E-01    16   0.481E+00    0.143E-01
DAV:   2    -0.142165261401E+02   -0.15939E-03   -0.15652E-03    32   0.385E-01    0.910E-02
DAV:   3    -0.142166330848E+02   -0.10694E-03   -0.17345E-04    16   0.141E-01    0.122E-02
DAV:   4    -0.142166528854E+02   -0.19801E-04   -0.21175E-05    32   0.411E-02    0.755E-03
DAV:   5    -0.142166804258E+02   -0.27540E-04   -0.29038E-06    16   0.157E-02    0.350E-03
DAV:   6    -0.142167196368E+02   -0.39211E-04   -0.50769E-06    32   0.170E-02    0.172E-03
DAV:   7    -0.142167601367E+02   -0.40500E-04   -0.58422E-06    16   0.136E-02    0.773E-04
DAV:   8    -0.142167646656E+02   -0.45289E-05   -0.25742E-07    32   0.335E-03
   8 F= -.14216765E+02 E0= -.14216765E+02  d E =-.288987E-11
       N       E                     dE             d eps       ncg     rms          rms(c)
DAV:   1    -0.142182464369E+02   -0.14863E-02   -0.57952E-01    16   0.725E+00    0.355E-01
DAV:   2    -0.142171209126E+02    0.11255E-02   -0.14170E-02    16   0.104E+00    0.198E-01
DAV:   3    -0.142169590725E+02    0.16184E-03   -0.11389E-03    32   0.290E-01    0.821E-02
DAV:   4    -0.142169966031E+02   -0.37531E-04   -0.44250E-04    24   0.168E-01    0.320E-02
DAV:   5    -0.142170026548E+02   -0.60517E-05   -0.11137E-04    24   0.790E-02    0.723E-03
DAV:   6    -0.142170411961E+02   -0.38541E-04   -0.51274E-06    16   0.222E-02    0.336E-03
DAV:   7    -0.142170731389E+02   -0.31943E-04   -0.44167E-06    32   0.134E-02    0.178E-03
DAV:   8    -0.142171071421E+02   -0.34003E-04   -0.30939E-06    16   0.968E-03    0.138E-03
DAV:   9    -0.142171148683E+02   -0.77262E-05   -0.81174E-07    32   0.606E-03
   9 F= -.14217115E+02 E0= -.14217115E+02  d E =-.163680E-11
       N       E                     dE             d eps       ncg     rms          rms(c)
DAV:   1    -0.142193827152E+02   -0.22756E-02   -0.26394E-01    16   0.508E+00    0.182E-01
DAV:   2    -0.142198031455E+02   -0.42043E-03   -0.67933E-03    32   0.767E-01    0.139E-01
DAV:   3    -0.142197466801E+02    0.56465E-04   -0.31162E-04    16   0.201E-01    0.411E-02
DAV:   4    -0.142197720463E+02   -0.25366E-04   -0.87625E-05    24   0.970E-02    0.110E-02
DAV:   5    -0.142197930360E+02   -0.20990E-04   -0.94532E-06    24   0.296E-02    0.483E-03
DAV:   6    -0.142198264492E+02   -0.33413E-04   -0.39059E-06    32   0.152E-02    0.191E-03
DAV:   7    -0.142198581718E+02   -0.31723E-04   -0.32034E-06    16   0.109E-02    0.171E-03
DAV:   8    -0.142198738494E+02   -0.15678E-04   -0.13624E-06    32   0.714E-03    0.618E-04
DAV:   9    -0.142198835459E+02   -0.96965E-05   -0.80403E-07    16   0.431E-03
  10 F= -.14219884E+02 E0= -.14219884E+02  d E =-.191628E-11
       N       E                     dE             d eps       ncg     rms          rms(c)
DAV:   1    -0.142206079868E+02   -0.73414E-03   -0.55978E-01    16   0.695E+00    0.330E-01
DAV:   2    -0.142194981349E+02    0.11099E-02   -0.94788E-03    32   0.837E-01    0.167E-01
DAV:   3    -0.142195377206E+02   -0.39586E-04   -0.38977E-04    16   0.189E-01    0.749E-02
DAV:   4    -0.142196315774E+02   -0.93857E-04   -0.12498E-04    32   0.113E-01    0.125E-02
DAV:   5    -0.142196618154E+02   -0.30238E-04   -0.21851E-05    32   0.365E-02    0.572E-03
DAV:   6    -0.142197099368E+02   -0.48121E-04   -0.76535E-06    24   0.194E-02    0.169E-03
DAV:   7    -0.142197363628E+02   -0.26426E-04   -0.18176E-06    32   0.767E-03    0.122E-03
DAV:   8    -0.142197607563E+02   -0.24394E-04   -0.23626E-06    32   0.804E-03    0.518E-04
DAV:   9    -0.142197697433E+02   -0.89870E-05   -0.61105E-07    32   0.376E-03
  11 F= -.14219770E+02 E0= -.14219770E+02  d E =-.245416E-11
       N       E                     dE             d eps       ncg     rms          rms(c)
DAV:   1    -0.142184186478E+02    0.13421E-02   -0.31698E-01    16   0.526E+00    0.311E-01
DAV:   2    -0.142172052972E+02    0.12134E-02   -0.11187E-02    24   0.896E-01    0.161E-01
DAV:   3    -0.142170661028E+02    0.13919E-03   -0.45998E-04    24   0.198E-01    0.720E-02
DAV:   4    -0.142170826442E+02   -0.16541E-04   -0.15095E-04    24   0.121E-01    0.155E-02
DAV:   5    -0.142170904118E+02   -0.77677E-05   -0.28257E-05    24   0.425E-02
  12 F= -.14217090E+02 E0= -.14217090E+02  d E =-.137422E-11
       N       E                     dE             d eps       ncg     rms          rms(c)
DAV:   1    -0.142178187859E+02   -0.73614E-03   -0.59185E-01    16   0.729E+00    0.354E-01
DAV:   2    -0.142167208004E+02    0.10980E-02   -0.13280E-02    32   0.104E+00    0.200E-01
DAV:   3    -0.142165612379E+02    0.15956E-03   -0.86437E-04    24   0.279E-01    0.802E-02
DAV:   4    -0.142166226157E+02   -0.61378E-04   -0.23550E-04    24   0.142E-01    0.221E-02
DAV:   5    -0.142166537634E+02   -0.31148E-04   -0.59072E-05    32   0.605E-02    0.821E-03
DAV:   6    -0.142166969850E+02   -0.43222E-04   -0.81578E-06    32   0.246E-02    0.258E-03
DAV:   7    -0.142167349515E+02   -0.37966E-04   -0.45381E-06    16   0.136E-02    0.158E-03
DAV:   8    -0.142167577194E+02   -0.22768E-04   -0.21301E-06    32   0.773E-03    0.896E-04
DAV:   9    -0.142167703294E+02   -0.12610E-04   -0.10147E-06    16   0.480E-03    0.291E-04
DAV:  10    -0.142167748821E+02   -0.45528E-05   -0.30461E-07    32   0.240E-03
  13 F= -.14216775E+02 E0= -.14216775E+02  d E =-.356241E-11
