 vasp.5.4.4.18Apr17-6-g9f103f2a35 (build Dec 28 2021 15:39:15) complex           
 executed on             LinuxGNU date 2021.12.31  11:01:16
 running on    4 total cores
 distrk:  each k-point on    4 cores,    1 groups
 distr:  one band on NCORES_PER_BAND=   1 cores,    4 groups


--------------------------------------------------------------------------------------------------------


 INCAR:
 POTCAR:   PAW_RPBE O 08Apr2002                   
 POTCAR:   PAW_RPBE H 15Jun2001                   
 POTCAR:   PAW_RPBE O 08Apr2002                   
   VRHFIN =O: s2p4                                                              
   LEXCH  = PE                                                                  
   EATOM  =   432.3788 eV,   31.7789 Ry                                         
                                                                                
   TITEL  = PAW_RPBE O 08Apr2002                                                
   LULTRA =        F    use ultrasoft PP ?                                      
   IUNSCR =        0    unscreen: 0-lin 1-nonlin 2-no                           
   RPACOR =     .000    partial core radius                                     
   POMASS =   16.000; ZVAL   =    6.000    mass and valenz                      
   RCORE  =    1.520    outmost cutoff radius                                   
   RWIGS  =    1.550; RWIGS  =     .820    wigner-seitz radius (au A)           
   ENMAX  =  400.000; ENMIN  =  300.000 eV                                      
   ICORE  =        2    local potential                                         
   LCOR   =        T    correct aug charges                                     
   LPAW   =        T    paw PP                                                  
   EAUG   =  605.392                                                            
   DEXC   =     .000                                                            
   RMAX   =    2.264    core radius for proj-oper                               
   RAUG   =    1.300    factor for augmentation sphere                          
   RDEP   =    1.550    radius for radial grids                                 
   QCUT   =   -5.520; QGAM   =   11.041    optimization parameters              
                                                                                
   Description                                                                  
     l     E      TYP  RCUT    TYP  RCUT                                        
     0   .000     23  1.200                                                     
     0  -.700     23  1.200                                                     
     1   .000     23  1.520                                                     
     1   .600     23  1.520                                                     
     2   .000      7  1.500                                                     
  local pseudopotential read in
  atomic valenz-charges read in
  non local Contribution for L=           0  read in
    real space projection operators read in
  non local Contribution for L=           0  read in
    real space projection operators read in
  non local Contribution for L=           1  read in
    real space projection operators read in
  non local Contribution for L=           1  read in
    real space projection operators read in
    PAW grid and wavefunctions read in

   number of l-projection  operators is LMAX  =           4
   number of lm-projection operators is LMMAX =           8

 POTCAR:   PAW_RPBE H 15Jun2001                   
   VRHFIN =H: ultrasoft test                                                    
   LEXCH  = PE                                                                  
   EATOM  =    12.4884 eV,     .9179 Ry                                         
                                                                                
   TITEL  = PAW_RPBE H 15Jun2001                                                
   LULTRA =        F    use ultrasoft PP ?                                      
   IUNSCR =        0    unscreen: 0-lin 1-nonlin 2-no                           
   RPACOR =     .000    partial core radius                                     
   POMASS =    1.000; ZVAL   =    1.000    mass and valenz                      
   RCORE  =    1.100    outmost cutoff radius                                   
   RWIGS  =     .700; RWIGS  =     .370    wigner-seitz radius (au A)           
   ENMAX  =  250.000; ENMIN  =  200.000 eV                                      
   RCLOC  =     .701    cutoff for local pot                                    
   LCOR   =        T    correct aug charges                                     
   LPAW   =        T    paw PP                                                  
   EAUG   =  400.000                                                            
   RMAX   =    2.174    core radius for proj-oper                               
   RAUG   =    1.200    factor for augmentation sphere                          
   RDEP   =    1.112    radius for radial grids                                 
   QCUT   =   -5.749; QGAM   =   11.498    optimization parameters              
                                                                                
   Description                                                                  
     l     E      TYP  RCUT    TYP  RCUT                                        
     0   .000     23  1.100                                                     
     0   .500     23  1.100                                                     
     1  -.300     23  1.100                                                     
  local pseudopotential read in
  atomic valenz-charges read in
  non local Contribution for L=           0  read in
    real space projection operators read in
  non local Contribution for L=           0  read in
    real space projection operators read in
  non local Contribution for L=           1  read in
    real space projection operators read in
    PAW grid and wavefunctions read in

   number of l-projection  operators is LMAX  =           3
   number of lm-projection operators is LMMAX =           5

 PAW_RPBE O 08Apr2002                   :
 energy of atom  1       EATOM= -432.3788
 kinetic energy error for atom=    0.1156 (will be added to EATOM!!)
 PAW_RPBE H 15Jun2001                   :
 energy of atom  2       EATOM=  -12.4884
 kinetic energy error for atom=    0.0098 (will be added to EATOM!!)


 POSCAR: H2O _2                                  
  positions in cartesian coordinates
  No initial velocities read in
 exchange correlation table for  LEXCH =        8
   RHO(1)=    0.500       N(1)  =     2000
   RHO(2)=  100.500       N(2)  =     4000



--------------------------------------------------------------------------------------------------------


 ion  position               nearest neighbor table
   1  0.000  0.000  0.000-   2 0.97   3 0.97
   2  0.075  0.903  0.000-   1 0.97
   3  0.075  0.097  0.000-   1 0.97

  LATTYP: Found a simple cubic cell.
 ALAT       =     7.9377000000
  
  Lattice vectors:
  
 A1 = (   7.9377000000,   0.0000000000,   0.0000000000)
 A2 = (   0.0000000000,   7.9377000000,   0.0000000000)
 A3 = (   0.0000000000,   0.0000000000,   7.9377000000)


Analysis of symmetry for initial positions (statically):
=====================================================================
 Subroutine PRICEL returns:
 Original cell was already a primitive cell.
 

 Routine SETGRP: Setting up the symmetry group for a 
 simple cubic supercell.


 Subroutine GETGRP returns: Found  4 space group operations
 (whereof  4 operations were pure point group operations)
 out of a pool of 48 trial point group operations.


The static configuration has the point symmetry C_2v.


Analysis of symmetry for dynamics (positions and initial velocities):
=====================================================================
 Subroutine PRICEL returns:
 Original cell was already a primitive cell.
 

 Routine SETGRP: Setting up the symmetry group for a 
 simple cubic supercell.


 Subroutine GETGRP returns: Found  4 space group operations
 (whereof  4 operations were pure point group operations)
 out of a pool of 48 trial point group operations.


The dynamic configuration has the point symmetry C_2v.


Analysis of constrained symmetry for selective dynamics:
=====================================================================
 Subroutine PRICEL returns:
 Original cell was already a primitive cell.
 

 Routine SETGRP: Setting up the symmetry group for a 
 simple cubic supercell.


 Subroutine GETGRP returns: Found  4 space group operations
 (whereof  4 operations were pure point group operations)
 out of a pool of 48 trial point group operations.


The constrained configuration has the point symmetry C_2v.


 Subroutine INISYM returns: Found  4 space group operations
 (whereof  4 operations are pure point group operations),
 and found     1 'primitive' translations



 KPOINTS: Gamma-point only                        
  k-points in reciprocal lattice
Space group operators:
 irot       det(A)        alpha          n_x          n_y          n_z        tau_x        tau_y        tau_z
    1     1.000000     0.000001     1.000000     0.000000     0.000000     0.000000     0.000000     0.000000
    2    -1.000000   180.000000     0.000000     0.000000     1.000000     0.000000     0.000000     0.000000
    3     1.000000   180.000000     1.000000     0.000000     0.000000     0.000000     0.000000     0.000000
    4    -1.000000   180.000000     0.000000     1.000000     0.000000     0.000000     0.000000     0.000000

 ----------------------------------------------------------------------------- 
|                                                                             |
|           W    W    AA    RRRRR   N    N  II  N    N   GGGG   !!!           |
|           W    W   A  A   R    R  NN   N  II  NN   N  G    G  !!!           |
|           W    W  A    A  R    R  N N  N  II  N N  N  G       !!!           |
|           W WW W  AAAAAA  RRRRR   N  N N  II  N  N N  G  GGG   !            |
|           WW  WW  A    A  R   R   N   NN  II  N   NN  G    G                |
|           W    W  A    A  R    R  N    N  II  N    N   GGGG   !!!           |
|                                                                             |
|      Your generating k-point grid is not commensurate to the symmetry       |
|      of the lattice.  This can cause   slow convergence with respect        |
|      to k-points for HF type calculations                                   |
|      suggested SOLUTIONS:                                                   |
|       ) if not already the case, use automatic k-point generation           |
|       ) shift your grid to Gamma (G) (e.g. required for hex or fcc lattice) |
|                                                                             |
 ----------------------------------------------------------------------------- 

 
 Subroutine IBZKPT_HF returns following result:
 ==============================================
 
 Found      1 k-points in 1st BZ
 the following      1 k-points will be used (e.g. in the exchange kernel)
 Following reciprocal coordinates:   # in IRBZ
  0.000000  0.000000  0.000000    1.00000000   1 t-inv F


--------------------------------------------------------------------------------------------------------




 Dimension of arrays:
   k-points           NKPTS =      1   k-points in BZ     NKDIM =      1   number of bands    NBANDS=      8
   number of dos      NEDOS =    301   number of ions     NIONS =      3
   non local maximal  LDIM  =      4   non local SUM 2l+1 LMDIM =      8
   total plane-waves  NPLWV =  64000
   max r-space proj   IRMAX =      1   max aug-charges    IRDMAX=   1860
   dimension x,y,z NGX =    40 NGY =   40 NGZ =   40
   dimension x,y,z NGXF=    80 NGYF=   80 NGZF=   80
   support grid    NGXF=    80 NGYF=   80 NGZF=   80
   ions per type =               1   2
   NGX,Y,Z   is equivalent  to a cutoff of   8.38,  8.38,  8.38 a.u.
   NGXF,Y,Z  is equivalent  to a cutoff of  16.76, 16.76, 16.76 a.u.

 SYSTEM =  H2O vibration                           
 POSCAR =  H2O _2                                  

 Startparameter for this run:
   NWRITE =      2    write-flag & timer
   PREC   = normal    normal or accurate (medium, high low for compatibility)
   ISTART =      0    job   : 0-new  1-cont  2-samecut
   ICHARG =      2    charge: 1-file 2-atom 10-const
   ISPIN  =      1    spin polarized calculation?
   LNONCOLLINEAR =      F non collinear calculations
   LSORBIT =      F    spin-orbit coupling
   INIWAV =      1    electr: 0-lowe 1-rand  2-diag
   LASPH  =      F    aspherical Exc in radial PAW
   METAGGA=      F    non-selfconsistent MetaGGA calc.

 Electronic Relaxation 1
   ENCUT  =  400.0 eV  29.40 Ry    5.42 a.u.  12.94 12.94 12.94*2*pi/ulx,y,z
   ENINI  =  400.0     initial cutoff
   ENAUG  =  605.4 eV  augmentation charge cutoff
   NELM   =     60;   NELMIN=  2; NELMDL= -5     # of ELM steps 
   EDIFF  = 0.1E-04   stopping-criterion for ELM
   LREAL  =      F    real-space projection
   NLSPLINE    = F    spline interpolate recip. space projectors
   LCOMPAT=      F    compatible to vasp.4.4
   GGA_COMPAT  = T    GGA compatible to vasp.4.4-vasp.4.6
   LMAXPAW     = -100 max onsite density
   LMAXMIX     =    2 max onsite mixed and CHGCAR
   VOSKOWN=      0    Vosko Wilk Nusair interpolation
   ROPT   =    0.00000   0.00000
 Ionic relaxation
   EDIFFG = 0.1E-03   stopping-criterion for IOM
   NSW    =     73    number of steps for IOM
   NBLOCK =      1;   KBLOCK =     73    inner block; outer block 
   IBRION =      5    ionic relax: 0-MD 1-quasi-New 2-CG
   NFREE  =      2    steps in history (QN), initial steepest desc. (CG)
   ISIF   =      2    stress and relaxation
   IWAVPR =     11    prediction:  0-non 1-charg 2-wave 3-comb
   ISYM   =      2    0-nonsym 1-usesym 2-fastsym
   LCORR  =      T    Harris-Foulkes like correction to forces

   POTIM  = 0.0200    time-step for ionic-motion
   TEIN   =    0.0    initial temperature
   TEBEG  =    0.0;   TEEND  =   0.0 temperature during run
   SMASS  =  -3.00    Nose mass-parameter (am)
   estimated Nose-frequenzy (Omega)   =  0.10E-29 period in steps =****** mass=  -0.144E-26a.u.
   SCALEE = 1.0000    scale energy and forces
   NPACO  =    256;   APACO  = 16.0  distance and # of slots for P.C.
   PSTRESS=    0.0 pullay stress

  Mass of Ions in am
   POMASS =  16.00  1.00
  Ionic Valenz
   ZVAL   =   6.00  1.00
  Atomic Wigner-Seitz radii
   RWIGS  =  -1.00 -1.00
  virtual crystal weights 
   VCA    =   1.00  1.00
   NELECT =       8.0000    total number of electrons
   NUPDOWN=      -1.0000    fix difference up-down

 DOS related values:
   EMIN   =  10.00;   EMAX   =-10.00  energy-range for DOS
   EFERMI =   0.00
   ISMEAR =     0;   SIGMA  =   0.20  broadening in eV -4-tet -1-fermi 0-gaus

 Electronic relaxation 2 (details)
   IALGO  =     38    algorithm
   LDIAG  =      T    sub-space diagonalisation (order eigenvalues)
   LSUBROT=      F    optimize rotation matrix (better conditioning)
   TURBO    =      0    0=normal 1=particle mesh
   IRESTART =      0    0=no restart 2=restart with 2 vectors
   NREBOOT  =      0    no. of reboots
   NMIN     =      0    reboot dimension
   EREF     =   0.00    reference energy to select bands
   IMIX   =      4    mixing-type and parameters
     AMIX     =   0.40;   BMIX     =  1.00
     AMIX_MAG =   1.60;   BMIX_MAG =  1.00
     AMIN     =   0.10
     WC   =   100.;   INIMIX=   1;  MIXPRE=   1;  MAXMIX= -45

 Intra band minimization:
   WEIMIN = 0.0010     energy-eigenvalue tresh-hold
   EBREAK =  0.31E-06  absolut break condition
   DEPER  =   0.30     relativ break condition  

   TIME   =   0.40     timestep for ELM

  volume/ion in A,a.u.               =     166.71      1125.02
  Fermi-wavevector in a.u.,A,eV,Ry     =   0.412487  0.779487  2.314969  0.170145
  Thomas-Fermi vector in A             =   1.369490

 Write flags
   LWAVE        =      T    write WAVECAR
   LDOWNSAMPLE  =      F    k-point downsampling of WAVECAR
   LCHARG       =      T    write CHGCAR
   LVTOT        =      F    write LOCPOT, total local potential
   LVHAR        =      F    write LOCPOT, Hartree potential only
   LELF         =      F    write electronic localiz. function (ELF)
   LORBIT       =      0    0 simple, 1 ext, 2 COOP (PROOUT), +10 PAW based schemes


 Dipole corrections
   LMONO  =      F    monopole corrections only (constant potential shift)
   LDIPOL =      F    correct potential (dipole corrections)
   IDIPOL =      0    1-x, 2-y, 3-z, 4-all directions 
   EPSILON=  1.0000000 bulk dielectric constant

 Exchange correlation treatment:
   GGA     =    --    GGA type
   LEXCH   =     8    internal setting for exchange type
   VOSKOWN=      0    Vosko Wilk Nusair interpolation
   LHFCALC =     F    Hartree Fock is set to
   LHFONE  =     F    Hartree Fock one center treatment
   AEXX    =    0.0000 exact exchange contribution

 Linear response parameters
   LEPSILON=     F    determine dielectric tensor
   LRPA    =     F    only Hartree local field effects (RPA)
   LNABLA  =     F    use nabla operator in PAW spheres
   LVEL    =     F    velocity operator in full k-point grid
   LINTERFAST=   F  fast interpolation
   KINTER  =     0    interpolate to denser k-point grid
   CSHIFT  =0.1000    complex shift for real part using Kramers Kronig
   OMEGAMAX=  -1.0    maximum frequency
   DEG_THRESHOLD= 0.2000000E-02 threshold for treating states as degnerate
   RTIME   =   -0.100 relaxation time in fs
  (WPLASMAI=    0.000 imaginary part of plasma frequency in eV, 0.658/RTIME)
   DFIELD  = 0.0000000 0.0000000 0.0000000 field for delta impulse in time

 Orbital magnetization related:
   ORBITALMAG=     F  switch on orbital magnetization
   LCHIMAG   =     F  perturbation theory with respect to B field
   DQ        =  0.001000  dq finite difference perturbation B field
   LLRAUG    =     F  two centre corrections for induced B field



--------------------------------------------------------------------------------------------------------


 finite differences
   using selective dynamics as specified on POSCAR
   WARNING: If single coordinates had been selected the selection of coordinates
            is made according to the corresponding   d i r e c t   coordinates!
            Don't support selection of single cartesian coordinates -- sorry ... !
 charge density and potential will be updated during run
 non-spin polarized calculation
 Variant of blocked Davidson
 Davidson routine will perform the subspace rotation
 perform sub-space diagonalisation
    after iterative eigenvector-optimisation
 modified Broyden-mixing scheme, WC =      100.0
 initial mixing is a Kerker type mixing with AMIX =  0.4000 and BMIX =      1.0000
 Hartree-type preconditioning will be used
 using additional bands            4
 reciprocal scheme for non local part
 calculate Harris-corrections to forces   (improved forces if not selfconsistent)
 use gradient corrections 
 use of overlap-Matrix (Vanderbilt PP)
 Gauss-broadening in eV      SIGMA  =   0.20


--------------------------------------------------------------------------------------------------------


  energy-cutoff  :      400.00
  volume of cell :      500.13
      direct lattice vectors                 reciprocal lattice vectors
     7.937700000  0.000000000  0.000000000     0.125981078  0.000000000  0.000000000
     0.000000000  7.937700000  0.000000000     0.000000000  0.125981078  0.000000000
     0.000000000  0.000000000  7.937700000     0.000000000  0.000000000  0.125981078

  length of vectors
     7.937700000  7.937700000  7.937700000     0.125981078  0.125981078  0.125981078



 k-points in units of 2pi/SCALE and weight: Gamma-point only                        
   0.00000000  0.00000000  0.00000000       1.000

 k-points in reciprocal lattice and weights: Gamma-point only                        
   0.00000000  0.00000000  0.00000000       1.000

 position of ions in fractional coordinates (direct lattice) 
   0.00000000  0.00000000  0.00000000
   0.07513045  0.90318071  0.00000000
   0.07513045  0.09681929  0.00000000

 position of ions in cartesian coordinates  (Angst):
   0.00000000  0.00000000  0.00000000
   0.59636295  7.16917755  0.00000000
   0.59636295  0.76852245  0.00000000



--------------------------------------------------------------------------------------------------------


 k-point  1 :   0.0000 0.0000 0.0000  plane waves:    9045

 maximum and minimum number of plane-waves per node :      9045     9045

 maximum number of plane-waves:      9045
 maximum index in each direction: 
   IXMAX=   12   IYMAX=   12   IZMAX=   12
   IXMIN=  -12   IYMIN=  -12   IZMIN=  -12


 serial   3D FFT for wavefunctions
 parallel 3D FFT for charge:
    minimum data exchange during FFTs selected (reduces bandwidth)


 total amount of memory used by VASP MPI-rank0    46433. kBytes
=======================================================================

   base      :      30000. kBytes
   nonl-proj :       1592. kBytes
   fftplans  :       4661. kBytes
   grid      :       9881. kBytes
   one-center:          9. kBytes
   wavefun   :        290. kBytes

     INWAV:  cpu time    0.0000: real time    0.0000
 Broyden mixing: mesh for mixing (old mesh)
   NGX = 25   NGY = 25   NGZ = 25
  (NGX  = 80   NGY  = 80   NGZ  = 80)
  gives a total of  15625 points

 initial charge density was supplied:
 charge density of overlapping atoms calculated
 number of electron       8.0000000 magnetization 
 keeping initial charge density in first step


--------------------------------------------------------------------------------------------------------


 Maximum index for augmentation-charges          395 (set IRDMAX)


--------------------------------------------------------------------------------------------------------


 First call to EWALD:  gamma=   0.223
 Maximum number of real-space cells 3x 3x 3
 Maximum number of reciprocal cells 3x 3x 3

    FEWALD:  cpu time    0.0003: real time    0.0003


--------------------------------------- Iteration      1(   1)  ---------------------------------------


    POTLOK:  cpu time    0.0750: real time    0.0750
    SETDIJ:  cpu time    0.0007: real time    0.0007
     EDDAV:  cpu time    0.0209: real time    0.0209
       DOS:  cpu time    0.0001: real time    0.0001
    --------------------------------------------
      LOOP:  cpu time    0.0967: real time    0.0967

 eigenvalue-minimisations  :    16
 total energy-change (2. order) : 0.6502334E+02  (-0.1621941E+03)
 number of electron       8.0000000 magnetization 
 augmentation part        8.0000000 magnetization 

 Free energy of the ion-electron system (eV)
  ---------------------------------------------------
  alpha Z        PSCENC =         0.44832783
  Ewald energy   TEWEN  =        23.12739290
  -Hartree energ DENC   =      -384.48937671
  -exchange      EXHF   =         0.00000000
  -V(xc)+E(xc)   XCENC  =        32.22925639
  PAW double counting   =       247.56105404     -249.42875511
  entropy T*S    EENTRO =        -0.00069408
  eigenvalues    EBANDS =       -61.64433026
  atomic energy  EATOM  =       457.22046137
  Solvation  Ediel_sol  =         0.00000000
  ---------------------------------------------------
  free energy    TOTEN  =        65.02333636 eV

  energy without entropy =       65.02403044  energy(sigma->0) =       65.02368340


--------------------------------------------------------------------------------------------------------




--------------------------------------- Iteration      1(   2)  ---------------------------------------


     EDDAV:  cpu time    0.0363: real time    0.0363
       DOS:  cpu time    0.0001: real time    0.0001
    --------------------------------------------
      LOOP:  cpu time    0.0364: real time    0.0364

 eigenvalue-minimisations  :    32
 total energy-change (2. order) :-0.7290172E+02  (-0.7289731E+02)
 number of electron       8.0000000 magnetization 
 augmentation part        8.0000000 magnetization 

 Free energy of the ion-electron system (eV)
  ---------------------------------------------------
  alpha Z        PSCENC =         0.44832783
  Ewald energy   TEWEN  =        23.12739290
  -Hartree energ DENC   =      -384.48937671
  -exchange      EXHF   =         0.00000000
  -V(xc)+E(xc)   XCENC  =        32.22925639
  PAW double counting   =       247.56105404     -249.42875511
  entropy T*S    EENTRO =        -0.00000000
  eigenvalues    EBANDS =      -134.54674388
  atomic energy  EATOM  =       457.22046137
  Solvation  Ediel_sol  =         0.00000000
  ---------------------------------------------------
  free energy    TOTEN  =        -7.87838319 eV

  energy without entropy =       -7.87838319  energy(sigma->0) =       -7.87838319


--------------------------------------------------------------------------------------------------------




--------------------------------------- Iteration      1(   3)  ---------------------------------------


     EDDAV:  cpu time    0.0209: real time    0.0209
       DOS:  cpu time    0.0001: real time    0.0001
    --------------------------------------------
      LOOP:  cpu time    0.0210: real time    0.0210

 eigenvalue-minimisations  :    16
 total energy-change (2. order) :-0.8251955E+01  (-0.8251955E+01)
 number of electron       8.0000000 magnetization 
 augmentation part        8.0000000 magnetization 

 Free energy of the ion-electron system (eV)
  ---------------------------------------------------
  alpha Z        PSCENC =         0.44832783
  Ewald energy   TEWEN  =        23.12739290
  -Hartree energ DENC   =      -384.48937671
  -exchange      EXHF   =         0.00000000
  -V(xc)+E(xc)   XCENC  =        32.22925639
  PAW double counting   =       247.56105404     -249.42875511
  entropy T*S    EENTRO =        -0.00000000
  eigenvalues    EBANDS =      -142.79869878
  atomic energy  EATOM  =       457.22046137
  Solvation  Ediel_sol  =         0.00000000
  ---------------------------------------------------
  free energy    TOTEN  =       -16.13033808 eV

  energy without entropy =      -16.13033808  energy(sigma->0) =      -16.13033808


--------------------------------------------------------------------------------------------------------




--------------------------------------- Iteration      1(   4)  ---------------------------------------


     EDDAV:  cpu time    0.0377: real time    0.0377
       DOS:  cpu time    0.0001: real time    0.0001
    --------------------------------------------
      LOOP:  cpu time    0.0378: real time    0.0378

 eigenvalue-minimisations  :    32
 total energy-change (2. order) :-0.1125225E+00  (-0.1125225E+00)
 number of electron       8.0000000 magnetization 
 augmentation part        8.0000000 magnetization 

 Free energy of the ion-electron system (eV)
  ---------------------------------------------------
  alpha Z        PSCENC =         0.44832783
  Ewald energy   TEWEN  =        23.12739290
  -Hartree energ DENC   =      -384.48937671
  -exchange      EXHF   =         0.00000000
  -V(xc)+E(xc)   XCENC  =        32.22925639
  PAW double counting   =       247.56105404     -249.42875511
  entropy T*S    EENTRO =        -0.00000000
  eigenvalues    EBANDS =      -142.91122128
  atomic energy  EATOM  =       457.22046137
  Solvation  Ediel_sol  =         0.00000000
  ---------------------------------------------------
  free energy    TOTEN  =       -16.24286058 eV

  energy without entropy =      -16.24286058  energy(sigma->0) =      -16.24286058


--------------------------------------------------------------------------------------------------------




--------------------------------------- Iteration      1(   5)  ---------------------------------------


     EDDAV:  cpu time    0.0371: real time    0.0371
       DOS:  cpu time    0.0001: real time    0.0001
    CHARGE:  cpu time    0.0120: real time    0.0120
    MIXING:  cpu time    0.0022: real time    0.0022
    --------------------------------------------
      LOOP:  cpu time    0.0513: real time    0.0514

 eigenvalue-minimisations  :    32
 total energy-change (2. order) :-0.1392896E-04  (-0.1392896E-04)
 number of electron       8.0000141 magnetization 
 augmentation part        0.8291638 magnetization 

 Broyden mixing:
  rms(total) = 0.76788E+00    rms(broyden)= 0.76509E+00
  rms(prec ) = 0.11778E+01
  weight for this iteration     100.00

 Free energy of the ion-electron system (eV)
  ---------------------------------------------------
  alpha Z        PSCENC =         0.44832783
  Ewald energy   TEWEN  =        23.12739290
  -Hartree energ DENC   =      -384.48937671
  -exchange      EXHF   =         0.00000000
  -V(xc)+E(xc)   XCENC  =        32.22925639
  PAW double counting   =       247.56105404     -249.42875511
  entropy T*S    EENTRO =        -0.00000000
  eigenvalues    EBANDS =      -142.91123521
  atomic energy  EATOM  =       457.22046137
  Solvation  Ediel_sol  =         0.00000000
  ---------------------------------------------------
  free energy    TOTEN  =       -16.24287451 eV

  energy without entropy =      -16.24287451  energy(sigma->0) =      -16.24287451


--------------------------------------------------------------------------------------------------------




--------------------------------------- Iteration      1(   6)  ---------------------------------------


    POTLOK:  cpu time    0.0623: real time    0.0623
    SETDIJ:  cpu time    0.0007: real time    0.0007
     EDDAV:  cpu time    0.0202: real time    0.0202
       DOS:  cpu time    0.0001: real time    0.0001
    CHARGE:  cpu time    0.0089: real time    0.0089
    MIXING:  cpu time    0.0023: real time    0.0023
    --------------------------------------------
      LOOP:  cpu time    0.0945: real time    0.0945

 eigenvalue-minimisations  :    16
 total energy-change (2. order) : 0.1862701E+01  (-0.9265566E+00)
 number of electron       8.0000122 magnetization 
 augmentation part        0.6951680 magnetization 

 Broyden mixing:
  rms(total) = 0.30243E+00    rms(broyden)= 0.30175E+00
  rms(prec ) = 0.39847E+00
  weight for this iteration     100.00

 eigenvalues of (default mixing * dielectric matrix)
  average eigenvalue GAMMA=   0.9122
  0.9122

 Free energy of the ion-electron system (eV)
  ---------------------------------------------------
  alpha Z        PSCENC =         0.44832783
  Ewald energy   TEWEN  =        23.12739290
  -Hartree energ DENC   =      -408.33597711
  -exchange      EXHF   =         0.00000000
  -V(xc)+E(xc)   XCENC  =        33.56500542
  PAW double counting   =       302.25373851     -304.45685704
  entropy T*S    EENTRO =        -0.00000000
  eigenvalues    EBANDS =      -118.20226552
  atomic energy  EATOM  =       457.22046137
  Solvation  Ediel_sol  =         0.00000000
  ---------------------------------------------------
  free energy    TOTEN  =       -14.38017364 eV

  energy without entropy =      -14.38017364  energy(sigma->0) =      -14.38017364


--------------------------------------------------------------------------------------------------------




--------------------------------------- Iteration      1(   7)  ---------------------------------------


    POTLOK:  cpu time    0.0636: real time    0.0637
    SETDIJ:  cpu time    0.0007: real time    0.0007
     EDDAV:  cpu time    0.0365: real time    0.0365
       DOS:  cpu time    0.0001: real time    0.0001
    CHARGE:  cpu time    0.0089: real time    0.0089
    MIXING:  cpu time    0.0023: real time    0.0023
    --------------------------------------------
      LOOP:  cpu time    0.1120: real time    0.1121

 eigenvalue-minimisations  :    32
 total energy-change (2. order) : 0.1027689E+00  (-0.9967393E-02)
 number of electron       8.0000121 magnetization 
 augmentation part        0.6915937 magnetization 

 Broyden mixing:
  rms(total) = 0.18832E+00    rms(broyden)= 0.18829E+00
  rms(prec ) = 0.25375E+00
  weight for this iteration     100.00

 eigenvalues of (default mixing * dielectric matrix)
  average eigenvalue GAMMA=   1.7542
  1.0331  2.4753

 Free energy of the ion-electron system (eV)
  ---------------------------------------------------
  alpha Z        PSCENC =         0.44832783
  Ewald energy   TEWEN  =        23.12739290
  -Hartree energ DENC   =      -411.91039569
  -exchange      EXHF   =         0.00000000
  -V(xc)+E(xc)   XCENC  =        33.74941277
  PAW double counting   =       314.62240968     -316.78737465
  entropy T*S    EENTRO =        -0.00000000
  eigenvalues    EBANDS =      -114.74763894
  atomic energy  EATOM  =       457.22046137
  Solvation  Ediel_sol  =         0.00000000
  ---------------------------------------------------
  free energy    TOTEN  =       -14.27740474 eV

  energy without entropy =      -14.27740474  energy(sigma->0) =      -14.27740474


--------------------------------------------------------------------------------------------------------




--------------------------------------- Iteration      1(   8)  ---------------------------------------


    POTLOK:  cpu time    0.0617: real time    0.0618
    SETDIJ:  cpu time    0.0008: real time    0.0008
     EDDAV:  cpu time    0.0274: real time    0.0274
       DOS:  cpu time    0.0001: real time    0.0001
    CHARGE:  cpu time    0.0089: real time    0.0089
    MIXING:  cpu time    0.0023: real time    0.0023
    --------------------------------------------
      LOOP:  cpu time    0.1013: real time    0.1013

 eigenvalue-minimisations  :    24
 total energy-change (2. order) : 0.7657765E-01  (-0.7325557E-02)
 number of electron       8.0000121 magnetization 
 augmentation part        0.6897423 magnetization 

 Broyden mixing:
  rms(total) = 0.22539E-01    rms(broyden)= 0.22524E-01
  rms(prec ) = 0.51654E-01
  weight for this iteration     100.00

 eigenvalues of (default mixing * dielectric matrix)
  average eigenvalue GAMMA=   1.5228
  2.3518  1.0195  1.1972

 Free energy of the ion-electron system (eV)
  ---------------------------------------------------
  alpha Z        PSCENC =         0.44832783
  Ewald energy   TEWEN  =        23.12739290
  -Hartree energ DENC   =      -417.41259040
  -exchange      EXHF   =         0.00000000
  -V(xc)+E(xc)   XCENC  =        34.05505742
  PAW double counting   =       332.93343284     -335.04474079
  entropy T*S    EENTRO =        -0.00000000
  eigenvalues    EBANDS =      -109.52816827
  atomic energy  EATOM  =       457.22046137
  Solvation  Ediel_sol  =         0.00000000
  ---------------------------------------------------
  free energy    TOTEN  =       -14.20082709 eV

  energy without entropy =      -14.20082709  energy(sigma->0) =      -14.20082709


--------------------------------------------------------------------------------------------------------




--------------------------------------- Iteration      1(   9)  ---------------------------------------


    POTLOK:  cpu time    0.0601: real time    0.0601
    SETDIJ:  cpu time    0.0007: real time    0.0007
     EDDAV:  cpu time    0.0272: real time    0.0272
       DOS:  cpu time    0.0001: real time    0.0001
    CHARGE:  cpu time    0.0088: real time    0.0088
    MIXING:  cpu time    0.0025: real time    0.0025
    --------------------------------------------
      LOOP:  cpu time    0.0993: real time    0.0993

 eigenvalue-minimisations  :    24
 total energy-change (2. order) :-0.5216924E-02  (-0.4280842E-03)
 number of electron       8.0000121 magnetization 
 augmentation part        0.6872042 magnetization 

 Broyden mixing:
  rms(total) = 0.13514E-01    rms(broyden)= 0.13508E-01
  rms(prec ) = 0.35535E-01
  weight for this iteration     100.00

 eigenvalues of (default mixing * dielectric matrix)
  average eigenvalue GAMMA=   1.9229
  0.9885  0.9885  3.1741  2.5405

 Free energy of the ion-electron system (eV)
  ---------------------------------------------------
  alpha Z        PSCENC =         0.44832783
  Ewald energy   TEWEN  =        23.12739290
  -Hartree energ DENC   =      -417.96995153
  -exchange      EXHF   =         0.00000000
  -V(xc)+E(xc)   XCENC  =        34.06617257
  PAW double counting   =       330.84460448     -332.95967270
  entropy T*S    EENTRO =        -0.00000000
  eigenvalues    EBANDS =      -108.98337893
  atomic energy  EATOM  =       457.22046137
  Solvation  Ediel_sol  =         0.00000000
  ---------------------------------------------------
  free energy    TOTEN  =       -14.20604402 eV

  energy without entropy =      -14.20604402  energy(sigma->0) =      -14.20604402


--------------------------------------------------------------------------------------------------------




--------------------------------------- Iteration      1(  10)  ---------------------------------------


    POTLOK:  cpu time    0.0598: real time    0.0598
    SETDIJ:  cpu time    0.0007: real time    0.0007
     EDDAV:  cpu time    0.0201: real time    0.0201
       DOS:  cpu time    0.0001: real time    0.0001
    CHARGE:  cpu time    0.0088: real time    0.0088
    MIXING:  cpu time    0.0026: real time    0.0026
    --------------------------------------------
      LOOP:  cpu time    0.0921: real time    0.0921

 eigenvalue-minimisations  :    16
 total energy-change (2. order) :-0.8273923E-02  (-0.3894051E-03)
 number of electron       8.0000121 magnetization 
 augmentation part        0.6879828 magnetization 

 Broyden mixing:
  rms(total) = 0.64661E-02    rms(broyden)= 0.64593E-02
  rms(prec ) = 0.13348E-01
  weight for this iteration     100.00

 eigenvalues of (default mixing * dielectric matrix)
  average eigenvalue GAMMA=   2.1360
  3.7396  2.4731  2.4731  0.9971  0.9971

 Free energy of the ion-electron system (eV)
  ---------------------------------------------------
  alpha Z        PSCENC =         0.44832783
  Ewald energy   TEWEN  =        23.12739290
  -Hartree energ DENC   =      -418.59148783
  -exchange      EXHF   =         0.00000000
  -V(xc)+E(xc)   XCENC  =        34.06967316
  PAW double counting   =       327.72561363     -329.83282910
  entropy T*S    EENTRO =        -0.00000000
  eigenvalues    EBANDS =      -108.38146990
  atomic energy  EATOM  =       457.22046137
  Solvation  Ediel_sol  =         0.00000000
  ---------------------------------------------------
  free energy    TOTEN  =       -14.21431794 eV

  energy without entropy =      -14.21431794  energy(sigma->0) =      -14.21431794


--------------------------------------------------------------------------------------------------------




--------------------------------------- Iteration      1(  11)  ---------------------------------------


    POTLOK:  cpu time    0.0593: real time    0.0593
    SETDIJ:  cpu time    0.0007: real time    0.0007
     EDDAV:  cpu time    0.0203: real time    0.0203
       DOS:  cpu time    0.0001: real time    0.0001
    CHARGE:  cpu time    0.0088: real time    0.0088
    MIXING:  cpu time    0.0027: real time    0.0027
    --------------------------------------------
      LOOP:  cpu time    0.0919: real time    0.0919

 eigenvalue-minimisations  :    16
 total energy-change (2. order) :-0.7283971E-02  (-0.4910568E-03)
 number of electron       8.0000120 magnetization 
 augmentation part        0.6856289 magnetization 

 Broyden mixing:
  rms(total) = 0.94856E-02    rms(broyden)= 0.94776E-02
  rms(prec ) = 0.14597E-01
  weight for this iteration     100.00

 eigenvalues of (default mixing * dielectric matrix)
  average eigenvalue GAMMA=   2.0789
  4.3766  2.8279  2.4979  0.9966  0.9966  0.7780

 Free energy of the ion-electron system (eV)
  ---------------------------------------------------
  alpha Z        PSCENC =         0.44832783
  Ewald energy   TEWEN  =        23.12739290
  -Hartree energ DENC   =      -419.14116831
  -exchange      EXHF   =         0.00000000
  -V(xc)+E(xc)   XCENC  =        34.09245933
  PAW double counting   =       329.74145351     -331.85367078
  entropy T*S    EENTRO =        -0.00000000
  eigenvalues    EBANDS =      -107.85685776
  atomic energy  EATOM  =       457.22046137
  Solvation  Ediel_sol  =         0.00000000
  ---------------------------------------------------
  free energy    TOTEN  =       -14.22160191 eV

  energy without entropy =      -14.22160191  energy(sigma->0) =      -14.22160191


--------------------------------------------------------------------------------------------------------




--------------------------------------- Iteration      1(  12)  ---------------------------------------


    POTLOK:  cpu time    0.0590: real time    0.0591
    SETDIJ:  cpu time    0.0007: real time    0.0007
     EDDAV:  cpu time    0.0345: real time    0.0362
       DOS:  cpu time    0.0001: real time    0.0001
    CHARGE:  cpu time    0.0089: real time    0.0089
    MIXING:  cpu time    0.0027: real time    0.0027
    --------------------------------------------
      LOOP:  cpu time    0.1058: real time    0.1076

 eigenvalue-minimisations  :    32
 total energy-change (2. order) :-0.8212959E-03  (-0.1129254E-03)
 number of electron       8.0000121 magnetization 
 augmentation part        0.6870683 magnetization 

 Broyden mixing:
  rms(total) = 0.23910E-02    rms(broyden)= 0.23853E-02
  rms(prec ) = 0.38474E-02
  weight for this iteration     100.00

 eigenvalues of (default mixing * dielectric matrix)
  average eigenvalue GAMMA=   2.1794
  4.6173  2.7899  2.7899  2.0924  1.0680  0.9492  0.9492

 Free energy of the ion-electron system (eV)
  ---------------------------------------------------
  alpha Z        PSCENC =         0.44832783
  Ewald energy   TEWEN  =        23.12739290
  -Hartree energ DENC   =      -418.82689616
  -exchange      EXHF   =         0.00000000
  -V(xc)+E(xc)   XCENC  =        34.07232496
  PAW double counting   =       328.96947042     -331.07884536
  entropy T*S    EENTRO =        -0.00000000
  eigenvalues    EBANDS =      -108.15465916
  atomic energy  EATOM  =       457.22046137
  Solvation  Ediel_sol  =         0.00000000
  ---------------------------------------------------
  free energy    TOTEN  =       -14.22242321 eV

  energy without entropy =      -14.22242321  energy(sigma->0) =      -14.22242321


--------------------------------------------------------------------------------------------------------




--------------------------------------- Iteration      1(  13)  ---------------------------------------


    POTLOK:  cpu time    0.0595: real time    0.0595
    SETDIJ:  cpu time    0.0007: real time    0.0007
     EDDAV:  cpu time    0.0272: real time    0.0272
       DOS:  cpu time    0.0001: real time    0.0001
    CHARGE:  cpu time    0.0089: real time    0.0089
    MIXING:  cpu time    0.0028: real time    0.0028
    --------------------------------------------
      LOOP:  cpu time    0.0992: real time    0.0992

 eigenvalue-minimisations  :    24
 total energy-change (2. order) :-0.1033201E-02  (-0.1496988E-04)
 number of electron       8.0000121 magnetization 
 augmentation part        0.6873313 magnetization 

 Broyden mixing:
  rms(total) = 0.10362E-02    rms(broyden)= 0.10329E-02
  rms(prec ) = 0.14846E-02
  weight for this iteration     100.00

 eigenvalues of (default mixing * dielectric matrix)
  average eigenvalue GAMMA=   2.2050
  5.7276  3.2474  2.5449  2.3181  1.0424  0.9182  0.9182  0.9231

 Free energy of the ion-electron system (eV)
  ---------------------------------------------------
  alpha Z        PSCENC =         0.44832783
  Ewald energy   TEWEN  =        23.12739290
  -Hartree energ DENC   =      -418.75932151
  -exchange      EXHF   =         0.00000000
  -V(xc)+E(xc)   XCENC  =        34.06760097
  PAW double counting   =       328.83617233     -330.94468261
  entropy T*S    EENTRO =        -0.00000000
  eigenvalues    EBANDS =      -108.21940768
  atomic energy  EATOM  =       457.22046137
  Solvation  Ediel_sol  =         0.00000000
  ---------------------------------------------------
  free energy    TOTEN  =       -14.22345641 eV

  energy without entropy =      -14.22345641  energy(sigma->0) =      -14.22345641


--------------------------------------------------------------------------------------------------------




--------------------------------------- Iteration      1(  14)  ---------------------------------------


    POTLOK:  cpu time    0.0601: real time    0.0601
    SETDIJ:  cpu time    0.0007: real time    0.0007
     EDDAV:  cpu time    0.0353: real time    0.0353
       DOS:  cpu time    0.0001: real time    0.0001
    CHARGE:  cpu time    0.0090: real time    0.0090
    MIXING:  cpu time    0.0028: real time    0.0028
    --------------------------------------------
      LOOP:  cpu time    0.1080: real time    0.1080

 eigenvalue-minimisations  :    32
 total energy-change (2. order) :-0.1705295E-03  (-0.1052186E-05)
 number of electron       8.0000121 magnetization 
 augmentation part        0.6873386 magnetization 

 Broyden mixing:
  rms(total) = 0.46147E-03    rms(broyden)= 0.46114E-03
  rms(prec ) = 0.69733E-03
  weight for this iteration     100.00

 eigenvalues of (default mixing * dielectric matrix)
  average eigenvalue GAMMA=   2.3951
  6.2003  3.9918  2.6988  2.5843  2.1223  1.0818  0.9501  0.9501  0.9759

 Free energy of the ion-electron system (eV)
  ---------------------------------------------------
  alpha Z        PSCENC =         0.44832783
  Ewald energy   TEWEN  =        23.12739290
  -Hartree energ DENC   =      -418.72696858
  -exchange      EXHF   =         0.00000000
  -V(xc)+E(xc)   XCENC  =        34.06563895
  PAW double counting   =       328.74974993     -330.85827341
  entropy T*S    EENTRO =        -0.00000000
  eigenvalues    EBANDS =      -108.24995591
  atomic energy  EATOM  =       457.22046137
  Solvation  Ediel_sol  =         0.00000000
  ---------------------------------------------------
  free energy    TOTEN  =       -14.22362694 eV

  energy without entropy =      -14.22362694  energy(sigma->0) =      -14.22362694


--------------------------------------------------------------------------------------------------------




--------------------------------------- Iteration      1(  15)  ---------------------------------------


    POTLOK:  cpu time    0.0598: real time    0.0599
    SETDIJ:  cpu time    0.0007: real time    0.0007
     EDDAV:  cpu time    0.0344: real time    0.0345
       DOS:  cpu time    0.0001: real time    0.0001
    CHARGE:  cpu time    0.0089: real time    0.0089
    MIXING:  cpu time    0.0029: real time    0.0029
    --------------------------------------------
      LOOP:  cpu time    0.1069: real time    0.1069

 eigenvalue-minimisations  :    32
 total energy-change (2. order) :-0.1189176E-03  (-0.1170845E-05)
 number of electron       8.0000121 magnetization 
 augmentation part        0.6873088 magnetization 

 Broyden mixing:
  rms(total) = 0.61288E-04    rms(broyden)= 0.61181E-04
  rms(prec ) = 0.12270E-03
  weight for this iteration     100.00

 eigenvalues of (default mixing * dielectric matrix)
  average eigenvalue GAMMA=   2.3619
  6.3262  4.1817  2.9851  2.3903  2.3903  0.9520  0.9520  0.9810  1.0884  1.3719

 Free energy of the ion-electron system (eV)
  ---------------------------------------------------
  alpha Z        PSCENC =         0.44832783
  Ewald energy   TEWEN  =        23.12739290
  -Hartree energ DENC   =      -418.72250447
  -exchange      EXHF   =         0.00000000
  -V(xc)+E(xc)   XCENC  =        34.06555289
  PAW double counting   =       328.71489813     -330.82312784
  entropy T*S    EENTRO =        -0.00000000
  eigenvalues    EBANDS =      -108.25474667
  atomic energy  EATOM  =       457.22046137
  Solvation  Ediel_sol  =         0.00000000
  ---------------------------------------------------
  free energy    TOTEN  =       -14.22374586 eV

  energy without entropy =      -14.22374586  energy(sigma->0) =      -14.22374586


--------------------------------------------------------------------------------------------------------




--------------------------------------- Iteration      1(  16)  ---------------------------------------


    POTLOK:  cpu time    0.0603: real time    0.0603
    SETDIJ:  cpu time    0.0007: real time    0.0007
     EDDAV:  cpu time    0.0273: real time    0.0273
       DOS:  cpu time    0.0001: real time    0.0001
    --------------------------------------------
      LOOP:  cpu time    0.0883: real time    0.0883

 eigenvalue-minimisations  :    24
 total energy-change (2. order) :-0.7497512E-05  (-0.5483957E-07)
 number of electron       8.0000121 magnetization 
 augmentation part        0.6873088 magnetization 

 Free energy of the ion-electron system (eV)
  ---------------------------------------------------
  alpha Z        PSCENC =         0.44832783
  Ewald energy   TEWEN  =        23.12739290
  -Hartree energ DENC   =      -418.72448815
  -exchange      EXHF   =         0.00000000
  -V(xc)+E(xc)   XCENC  =        34.06569426
  PAW double counting   =       328.72813860     -330.83644667
  entropy T*S    EENTRO =        -0.00000000
  eigenvalues    EBANDS =      -108.25283348
  atomic energy  EATOM  =       457.22046137
  Solvation  Ediel_sol  =         0.00000000
  ---------------------------------------------------
  free energy    TOTEN  =       -14.22375335 eV

  energy without entropy =      -14.22375335  energy(sigma->0) =      -14.22375335


--------------------------------------------------------------------------------------------------------




 average (electrostatic) potential at core
  the test charge radii are     0.7215  0.5201
  (the norm of the test charge is              1.0000)
       1 -80.4552       2 -44.4831       3 -44.4831



 E-fermi :  -6.0153     XC(G=0):  -0.9980     alpha+bet : -0.2602


 k-point     1 :       0.0000    0.0000    0.0000
  band No.  band energies     occupation 
      1     -25.1118      2.00000
      2     -12.9035      2.00000
      3      -9.0915      2.00000
      4      -7.0196      2.00000
      5      -1.0752      0.00000
      6       1.1548      0.00000
      7       1.2393      0.00000
      8       1.7605      0.00000


--------------------------------------------------------------------------------------------------------


 soft charge-density along one line, spin component           1
         0         1         2         3         4         5         6         7         8         9
 total charge-density along one line

 pseudopotential strength for first ion, spin component:           1
 13.785  -0.525   0.000  -0.000  -0.121  -0.000   0.000   0.006
 -0.525   0.119  -0.000   0.000   0.015   0.000  -0.000  -0.002
  0.000  -0.000 -10.565   0.000   0.000   0.293  -0.000  -0.000
 -0.000   0.000   0.000 -10.327  -0.000  -0.000   0.253   0.000
 -0.121   0.015   0.000  -0.000 -10.469  -0.000   0.000   0.277
 -0.000   0.000   0.293  -0.000  -0.000   0.126   0.000   0.000
  0.000  -0.000  -0.000   0.253   0.000   0.000   0.138  -0.000
  0.006  -0.002  -0.000   0.000   0.277   0.000  -0.000   0.131
 total augmentation occupancy for first ion, spin component:           1
  1.859   0.207   0.000   0.000  -0.169   0.000   0.000   0.053
  0.207   0.047   0.000   0.000   0.172   0.000   0.000   0.032
  0.000   0.000   1.409   0.000   0.000   0.268   0.000   0.000
  0.000   0.000   0.000   1.811   0.000   0.000   0.113   0.000
 -0.169   0.172   0.000   0.000   1.568   0.000   0.000   0.208
  0.000   0.000   0.268   0.000   0.000   0.051   0.000   0.000
  0.000   0.000   0.000   0.113   0.000   0.000   0.007   0.000
  0.053   0.032   0.000   0.000   0.208   0.000   0.000   0.031


------------------------ aborting loop because EDIFF is reached ----------------------------------------


    CHARGE:  cpu time    0.0090: real time    0.0090
    FORLOC:  cpu time    0.0046: real time    0.0046
    FORNL :  cpu time    0.0029: real time    0.0029
    STRESS:  cpu time    0.0454: real time    0.0454
    FORHAR:  cpu time    0.0196: real time    0.0196
    MIXING:  cpu time    0.0029: real time    0.0029
    OFIELD:  cpu time    0.0000: real time    0.0000

  FORCE on cell =-STRESS in cart. coord.  units (eV):
  Direction    XX          YY          ZZ          XY          YZ          ZX
  --------------------------------------------------------------------------------------
  Alpha Z     0.44833     0.44833     0.44833
  Ewald      12.09482    66.33995   -55.30741     0.00000     0.00000    -0.00000
  Hartree   140.55328   149.93198   128.23158    -0.00000    -0.00000    -0.00000
  E(xc)     -36.09702   -35.89977   -36.39297    -0.00000     0.00000     0.00000
  Local    -242.10479  -290.61538  -183.04272    -0.00000    -0.00000    -0.00000
  n-local   -31.29354   -30.43923   -31.19431     0.00000    -0.00000    -0.00000
  augment     6.72227     5.76748     8.13471    -0.00000    -0.00000    -0.00000
  Kinetic   148.85631   133.74337   168.23184     0.00000     0.00000    -0.00000
  Fock        0.00000     0.00000     0.00000     0.00000     0.00000     0.00000
  -------------------------------------------------------------------------------------
  Total      -0.82035    -0.72328    -0.89095     0.00000     0.00000     0.00000
  in kB      -2.62801    -2.31703    -2.85417     0.00000     0.00000     0.00000
  external pressure =       -2.60 kB  Pullay stress =        0.00 kB


 VOLUME and BASIS-vectors are now :
 -----------------------------------------------------------------------------
  energy-cutoff  :      400.00
  volume of cell :      500.13
      direct lattice vectors                 reciprocal lattice vectors
     7.937700000  0.000000000  0.000000000     0.125981078  0.000000000  0.000000000
     0.000000000  7.937700000  0.000000000     0.000000000  0.125981078  0.000000000
     0.000000000  0.000000000  7.937700000     0.000000000  0.000000000  0.125981078

  length of vectors
     7.937700000  7.937700000  7.937700000     0.125981078  0.125981078  0.125981078


 FORCES acting on ions
    electron-ion (+dipol)            ewald-force                    non-local-force                 convergence-correction
 -----------------------------------------------------------------------------------------------
   0.621E+02 0.110E-15 -.602E-15   -.111E+03 0.284E-13 0.456E-16   0.490E+02 0.349E-26 0.311E-22   -.527E-03 -.141E-13 -.196E-14
   -.507E+02 0.708E+02 -.167E-06   0.556E+02 -.775E+02 0.209E-17   -.484E+01 0.670E+01 0.379E-23   -.261E-03 0.327E-03 -.708E-16
   -.507E+02 -.708E+02 0.159E-06   0.556E+02 0.775E+02 0.520E-17   -.484E+01 -.670E+01 -.232E-23   -.261E-03 -.327E-03 0.978E-15
 -----------------------------------------------------------------------------------------------
   -.394E+02 0.142E-13 -.815E-08   -.711E-14 0.000E+00 0.529E-16   0.394E+02 0.000E+00 0.325E-22   -.105E-02 -.163E-13 -.105E-14


 POSITION                                       TOTAL-FORCE (eV/Angst)
 -----------------------------------------------------------------------------------
      0.00000      0.00000      0.00000        -0.002797      0.000000      0.000000
      0.59636      7.16918      0.00000         0.001398      0.000042     -0.000000
      0.59636      0.76852      0.00000         0.001398     -0.000042     -0.000000
 -----------------------------------------------------------------------------------
    total drift:                               -0.000768     -0.000000     -0.000000


--------------------------------------------------------------------------------------------------------



  FREE ENERGIE OF THE ION-ELECTRON SYSTEM (eV)
  ---------------------------------------------------
  free  energy   TOTEN  =       -14.22375335 eV

  energy  without entropy=      -14.22375335  energy(sigma->0) =      -14.22375335



--------------------------------------------------------------------------------------------------------


    POTLOK:  cpu time    0.0606: real time    0.0606


--------------------------------------------------------------------------------------------------------


 Finite differences:
   Step               POTIM =    2.0000000000000000E-002
   Degrees of freedom DOF   =            6
  LATTYP: Found a simple cubic cell.
 ALAT       =     7.9377000000
  
  Lattice vectors:
  
 A1 = (   7.9377000000,   0.0000000000,   0.0000000000)
 A2 = (   0.0000000000,   7.9377000000,   0.0000000000)
 A3 = (   0.0000000000,   0.0000000000,   7.9377000000)


Analysis of symmetry for initial positions (statically):
=====================================================================
 Subroutine PRICEL returns:
 Original cell was already a primitive cell.
 

 Routine SETGRP: Setting up the symmetry group for a 
 simple cubic supercell.


 Subroutine GETGRP returns: Found  4 space group operations
 (whereof  4 operations were pure point group operations)
 out of a pool of 48 trial point group operations.


The static configuration has the point symmetry C_2v.


Analysis of symmetry for dynamics (positions and initial velocities):
=====================================================================
 Subroutine PRICEL returns:
 Original cell was already a primitive cell.
 

 Routine SETGRP: Setting up the symmetry group for a 
 simple cubic supercell.


 Subroutine GETGRP returns: Found  4 space group operations
 (whereof  4 operations were pure point group operations)
 out of a pool of 48 trial point group operations.


The dynamic configuration has the point symmetry C_2v.


Analysis of constrained symmetry for selective dynamics:
=====================================================================
 Subroutine PRICEL returns:
 Original cell was already a primitive cell.
 

 Routine SETGRP: Setting up the symmetry group for a 
 simple cubic supercell.


 Subroutine GETGRP returns: Found  4 space group operations
 (whereof  4 operations were pure point group operations)
 out of a pool of 48 trial point group operations.


The constrained configuration has the point symmetry C_2v.


 Subroutine INISYM returns: Found  4 space group operations
 (whereof  4 operations are pure point group operations),
 and found     1 'primitive' translations


 KPOINTS: Gamma-point only                        
  k-points in reciprocal lattice
Space group operators:
 irot       det(A)        alpha          n_x          n_y          n_z        tau_x        tau_y        tau_z
    1     1.000000     0.000001     1.000000     0.000000     0.000000     0.000000     0.000000     0.000000
    2    -1.000000   180.000000     0.000000     0.000000     1.000000     0.000000     0.000000     0.000000
    3     1.000000   180.000000     1.000000     0.000000     0.000000     0.000000     0.000000     0.000000
    4    -1.000000   180.000000     0.000000     1.000000     0.000000     0.000000     0.000000     0.000000
    WAVPRE:  cpu time    0.3572: real time    0.3572
    FEWALD:  cpu time    0.0001: real time    0.0001
    ORTHCH:  cpu time    0.0017: real time    0.0017
     LOOP+:  cpu time    1.8477: real time    1.8498


--------------------------------------- Iteration      2(   1)  ---------------------------------------


    POTLOK:  cpu time    0.0609: real time    0.0622
    SETDIJ:  cpu time    0.0007: real time    0.0007
     EDDAV:  cpu time    0.0205: real time    0.0205
       DOS:  cpu time    0.0001: real time    0.0001
    CHARGE:  cpu time    0.0094: real time    0.0094
    MIXING:  cpu time    0.0027: real time    0.0028
    --------------------------------------------
      LOOP:  cpu time    0.0943: real time    0.0957

 eigenvalue-minimisations  :    16
 total energy-change (2. order) : 0.8909199E-02  (-0.2284373E+00)
 number of electron       8.0000095 magnetization 
 augmentation part        0.6964770 magnetization 

 Broyden mixing:
  rms(total) = 0.36889E-01    rms(broyden)= 0.36453E-01
  rms(prec ) = 0.45825E-01
  weight for this iteration     100.00

 Free energy of the ion-electron system (eV)
  ---------------------------------------------------
  alpha Z        PSCENC =         0.44832783
  Ewald energy   TEWEN  =        25.35409084
  -Hartree energ DENC   =      -419.61896606
  -exchange      EXHF   =         0.00000000
  -V(xc)+E(xc)   XCENC  =        34.10335536
  PAW double counting   =       328.73061592     -330.83895500
  entropy T*S    EENTRO =        -0.00000000
  eigenvalues    EBANDS =      -109.61376690
  atomic energy  EATOM  =       457.22046137
  Solvation  Ediel_sol  =         0.00000000
  ---------------------------------------------------
  free energy    TOTEN  =       -14.21483666 eV

  energy without entropy =      -14.21483666  energy(sigma->0) =      -14.21483666


--------------------------------------------------------------------------------------------------------




--------------------------------------- Iteration      2(   2)  ---------------------------------------


    POTLOK:  cpu time    0.0631: real time    0.0632
    SETDIJ:  cpu time    0.0007: real time    0.0007
     EDDAV:  cpu time    0.0277: real time    0.0277
       DOS:  cpu time    0.0001: real time    0.0001
    CHARGE:  cpu time    0.0093: real time    0.0093
    MIXING:  cpu time    0.0024: real time    0.0025
    --------------------------------------------
      LOOP:  cpu time    0.1032: real time    0.1034

 eigenvalue-minimisations  :    24
 total energy-change (2. order) :-0.4377409E-03  (-0.3419443E-02)
 number of electron       8.0000095 magnetization 
 augmentation part        0.6942685 magnetization 

 Broyden mixing:
  rms(total) = 0.15441E-01    rms(broyden)= 0.15378E-01
  rms(prec ) = 0.19184E-01
  weight for this iteration     100.00

 eigenvalues of (default mixing * dielectric matrix)
  average eigenvalue GAMMA=   1.1998
  1.1998

 Free energy of the ion-electron system (eV)
  ---------------------------------------------------
  alpha Z        PSCENC =         0.44832783
  Ewald energy   TEWEN  =        25.35409084
  -Hartree energ DENC   =      -420.28545635
  -exchange      EXHF   =         0.00000000
  -V(xc)+E(xc)   XCENC  =        34.14224004
  PAW double counting   =       330.66665434     -332.78682526
  entropy T*S    EENTRO =        -0.00000000
  eigenvalues    EBANDS =      -108.97476719
  atomic energy  EATOM  =       457.22046137
  Solvation  Ediel_sol  =         0.00000000
  ---------------------------------------------------
  free energy    TOTEN  =       -14.21527440 eV

  energy without entropy =      -14.21527440  energy(sigma->0) =      -14.21527440


--------------------------------------------------------------------------------------------------------




--------------------------------------- Iteration      2(   3)  ---------------------------------------


    POTLOK:  cpu time    0.0642: real time    0.0642
    SETDIJ:  cpu time    0.0007: real time    0.0007
     EDDAV:  cpu time    0.0279: real time    0.0279
       DOS:  cpu time    0.0001: real time    0.0001
    CHARGE:  cpu time    0.0093: real time    0.0093
    MIXING:  cpu time    0.0025: real time    0.0025
    --------------------------------------------
      LOOP:  cpu time    0.1046: real time    0.1048

 eigenvalue-minimisations  :    24
 total energy-change (2. order) : 0.7552869E-04  (-0.5387063E-04)
 number of electron       8.0000095 magnetization 
 augmentation part        0.6940404 magnetization 

 Broyden mixing:
  rms(total) = 0.74912E-02    rms(broyden)= 0.74843E-02
  rms(prec ) = 0.92224E-02
  weight for this iteration     100.00

 eigenvalues of (default mixing * dielectric matrix)
  average eigenvalue GAMMA=   1.5920
  1.0643  2.1197

 Free energy of the ion-electron system (eV)
  ---------------------------------------------------
  alpha Z        PSCENC =         0.44832783
  Ewald energy   TEWEN  =        25.35409084
  -Hartree energ DENC   =      -420.42238749
  -exchange      EXHF   =         0.00000000
  -V(xc)+E(xc)   XCENC  =        34.15112864
  PAW double counting   =       331.48464254     -333.61005762
  entropy T*S    EENTRO =        -0.00000000
  eigenvalues    EBANDS =      -108.84140496
  atomic energy  EATOM  =       457.22046137
  Solvation  Ediel_sol  =         0.00000000
  ---------------------------------------------------
  free energy    TOTEN  =       -14.21519887 eV

  energy without entropy =      -14.21519887  energy(sigma->0) =      -14.21519887


--------------------------------------------------------------------------------------------------------




--------------------------------------- Iteration      2(   4)  ---------------------------------------


    POTLOK:  cpu time    0.0624: real time    0.0625
    SETDIJ:  cpu time    0.0007: real time    0.0007
     EDDAV:  cpu time    0.0204: real time    0.0204
       DOS:  cpu time    0.0001: real time    0.0001
    CHARGE:  cpu time    0.0093: real time    0.0093
    MIXING:  cpu time    0.0025: real time    0.0026
    --------------------------------------------
      LOOP:  cpu time    0.0954: real time    0.0955

 eigenvalue-minimisations  :    16
 total energy-change (2. order) :-0.1147639E-03  (-0.2788828E-04)
 number of electron       8.0000095 magnetization 
 augmentation part        0.6942381 magnetization 

 Broyden mixing:
  rms(total) = 0.12659E-02    rms(broyden)= 0.12601E-02
  rms(prec ) = 0.16615E-02
  weight for this iteration     100.00

 eigenvalues of (default mixing * dielectric matrix)
  average eigenvalue GAMMA=   1.5312
  2.3380  1.1278  1.1278

 Free energy of the ion-electron system (eV)
  ---------------------------------------------------
  alpha Z        PSCENC =         0.44832783
  Ewald energy   TEWEN  =        25.35409084
  -Hartree energ DENC   =      -420.47369705
  -exchange      EXHF   =         0.00000000
  -V(xc)+E(xc)   XCENC  =        34.15505762
  PAW double counting   =       332.11943132     -334.24928132
  entropy T*S    EENTRO =        -0.00000000
  eigenvalues    EBANDS =      -108.78970424
  atomic energy  EATOM  =       457.22046137
  Solvation  Ediel_sol  =         0.00000000
  ---------------------------------------------------
  free energy    TOTEN  =       -14.21531363 eV

  energy without entropy =      -14.21531363  energy(sigma->0) =      -14.21531363


--------------------------------------------------------------------------------------------------------




--------------------------------------- Iteration      2(   5)  ---------------------------------------


    POTLOK:  cpu time    0.0630: real time    0.0630
    SETDIJ:  cpu time    0.0007: real time    0.0007
     EDDAV:  cpu time    0.0277: real time    0.0277
       DOS:  cpu time    0.0001: real time    0.0001
    CHARGE:  cpu time    0.0093: real time    0.0093
    MIXING:  cpu time    0.0026: real time    0.0026
    --------------------------------------------
      LOOP:  cpu time    0.1034: real time    0.1035

 eigenvalue-minimisations  :    24
 total energy-change (2. order) :-0.1877478E-04  (-0.2193393E-05)
 number of electron       8.0000095 magnetization 
 augmentation part        0.6941756 magnetization 

 Broyden mixing:
  rms(total) = 0.58909E-03    rms(broyden)= 0.58779E-03
  rms(prec ) = 0.93698E-03
  weight for this iteration     100.00

 eigenvalues of (default mixing * dielectric matrix)
  average eigenvalue GAMMA=   1.6343
  2.5864  1.9943  1.0987  0.8578

 Free energy of the ion-electron system (eV)
  ---------------------------------------------------
  alpha Z        PSCENC =         0.44832783
  Ewald energy   TEWEN  =        25.35409084
  -Hartree energ DENC   =      -420.49038218
  -exchange      EXHF   =         0.00000000
  -V(xc)+E(xc)   XCENC  =        34.15604466
  PAW double counting   =       332.25512245     -334.38639174
  entropy T*S    EENTRO =        -0.00000000
  eigenvalues    EBANDS =      -108.77260563
  atomic energy  EATOM  =       457.22046137
  Solvation  Ediel_sol  =         0.00000000
  ---------------------------------------------------
  free energy    TOTEN  =       -14.21533241 eV

  energy without entropy =      -14.21533241  energy(sigma->0) =      -14.21533241


--------------------------------------------------------------------------------------------------------




--------------------------------------- Iteration      2(   6)  ---------------------------------------


    POTLOK:  cpu time    0.0624: real time    0.0625
    SETDIJ:  cpu time    0.0007: real time    0.0007
     EDDAV:  cpu time    0.0203: real time    0.0203
       DOS:  cpu time    0.0001: real time    0.0001
    CHARGE:  cpu time    0.0093: real time    0.0093
    MIXING:  cpu time    0.0027: real time    0.0027
    --------------------------------------------
      LOOP:  cpu time    0.0955: real time    0.0956

 eigenvalue-minimisations  :    16
 total energy-change (2. order) :-0.1457865E-04  (-0.2396865E-06)
 number of electron       8.0000095 magnetization 
 augmentation part        0.6941390 magnetization 

 Broyden mixing:
  rms(total) = 0.18070E-03    rms(broyden)= 0.18012E-03
  rms(prec ) = 0.42138E-03
  weight for this iteration     100.00

 eigenvalues of (default mixing * dielectric matrix)
  average eigenvalue GAMMA=   1.5323
  2.5538  2.0503  1.0458  1.0458  0.9656

 Free energy of the ion-electron system (eV)
  ---------------------------------------------------
  alpha Z        PSCENC =         0.44832783
  Ewald energy   TEWEN  =        25.35409084
  -Hartree energ DENC   =      -420.50055397
  -exchange      EXHF   =         0.00000000
  -V(xc)+E(xc)   XCENC  =        34.15650582
  PAW double counting   =       332.30781861     -334.43959265
  entropy T*S    EENTRO =        -0.00000000
  eigenvalues    EBANDS =      -108.76240482
  atomic energy  EATOM  =       457.22046137
  Solvation  Ediel_sol  =         0.00000000
  ---------------------------------------------------
  free energy    TOTEN  =       -14.21534699 eV

  energy without entropy =      -14.21534699  energy(sigma->0) =      -14.21534699


--------------------------------------------------------------------------------------------------------




--------------------------------------- Iteration      2(   7)  ---------------------------------------


    POTLOK:  cpu time    0.0623: real time    0.0624
    SETDIJ:  cpu time    0.0007: real time    0.0007
     EDDAV:  cpu time    0.0350: real time    0.0350
       DOS:  cpu time    0.0001: real time    0.0001
    CHARGE:  cpu time    0.0091: real time    0.0091
    MIXING:  cpu time    0.0027: real time    0.0028
    --------------------------------------------
      LOOP:  cpu time    0.1098: real time    0.1100

 eigenvalue-minimisations  :    32
 total energy-change (2. order) :-0.1371905E-04  (-0.1620664E-06)
 number of electron       8.0000095 magnetization 
 augmentation part        0.6941867 magnetization 

 Broyden mixing:
  rms(total) = 0.14622E-03    rms(broyden)= 0.14603E-03
  rms(prec ) = 0.29808E-03
  weight for this iteration     100.00

 eigenvalues of (default mixing * dielectric matrix)
  average eigenvalue GAMMA=   1.7240
  3.0364  2.4947  1.9124  0.9339  0.9339  1.0329

 Free energy of the ion-electron system (eV)
  ---------------------------------------------------
  alpha Z        PSCENC =         0.44832783
  Ewald energy   TEWEN  =        25.35409084
  -Hartree energ DENC   =      -420.49832426
  -exchange      EXHF   =         0.00000000
  -V(xc)+E(xc)   XCENC  =        34.15626189
  PAW double counting   =       332.28226675     -334.41369004
  entropy T*S    EENTRO =        -0.00000000
  eigenvalues    EBANDS =      -108.76475507
  atomic energy  EATOM  =       457.22046137
  Solvation  Ediel_sol  =         0.00000000
  ---------------------------------------------------
  free energy    TOTEN  =       -14.21536071 eV

  energy without entropy =      -14.21536071  energy(sigma->0) =      -14.21536071


--------------------------------------------------------------------------------------------------------




--------------------------------------- Iteration      2(   8)  ---------------------------------------


    POTLOK:  cpu time    0.0631: real time    0.0632
    SETDIJ:  cpu time    0.0007: real time    0.0007
     EDDAV:  cpu time    0.0203: real time    0.0203
       DOS:  cpu time    0.0001: real time    0.0001
    CHARGE:  cpu time    0.0092: real time    0.0092
    MIXING:  cpu time    0.0028: real time    0.0028
    --------------------------------------------
      LOOP:  cpu time    0.0961: real time    0.0962

 eigenvalue-minimisations  :    16
 total energy-change (2. order) :-0.1292510E-04  (-0.1224821E-06)
 number of electron       8.0000095 magnetization 
 augmentation part        0.6941658 magnetization 

 Broyden mixing:
  rms(total) = 0.62572E-04    rms(broyden)= 0.62467E-04
  rms(prec ) = 0.10810E-03
  weight for this iteration     100.00

 eigenvalues of (default mixing * dielectric matrix)
  average eigenvalue GAMMA=   1.8759
  4.2864  2.5423  1.8212  1.6015  0.9215  0.9215  1.0369

 Free energy of the ion-electron system (eV)
  ---------------------------------------------------
  alpha Z        PSCENC =         0.44832783
  Ewald energy   TEWEN  =        25.35409084
  -Hartree energ DENC   =      -420.50692539
  -exchange      EXHF   =         0.00000000
  -V(xc)+E(xc)   XCENC  =        34.15661879
  PAW double counting   =       332.28406877     -334.41543525
  entropy T*S    EENTRO =        -0.00000000
  eigenvalues    EBANDS =      -108.75658058
  atomic energy  EATOM  =       457.22046137
  Solvation  Ediel_sol  =         0.00000000
  ---------------------------------------------------
  free energy    TOTEN  =       -14.21537363 eV

  energy without entropy =      -14.21537363  energy(sigma->0) =      -14.21537363


--------------------------------------------------------------------------------------------------------




--------------------------------------- Iteration      2(   9)  ---------------------------------------


    POTLOK:  cpu time    0.0627: real time    0.0628
    SETDIJ:  cpu time    0.0007: real time    0.0007
     EDDAV:  cpu time    0.0347: real time    0.0347
       DOS:  cpu time    0.0001: real time    0.0001
    --------------------------------------------
      LOOP:  cpu time    0.0981: real time    0.0982

 eigenvalue-minimisations  :    32
 total energy-change (2. order) :-0.5405257E-05  (-0.2759989E-07)
 number of electron       8.0000095 magnetization 
 augmentation part        0.6941658 magnetization 

 Free energy of the ion-electron system (eV)
  ---------------------------------------------------
  alpha Z        PSCENC =         0.44832783
  Ewald energy   TEWEN  =        25.35409084
  -Hartree energ DENC   =      -420.50815669
  -exchange      EXHF   =         0.00000000
  -V(xc)+E(xc)   XCENC  =        34.15665768
  PAW double counting   =       332.28500158     -334.41645555
  entropy T*S    EENTRO =        -0.00000000
  eigenvalues    EBANDS =      -108.75530609
  atomic energy  EATOM  =       457.22046137
  Solvation  Ediel_sol  =         0.00000000
  ---------------------------------------------------
  free energy    TOTEN  =       -14.21537904 eV

  energy without entropy =      -14.21537904  energy(sigma->0) =      -14.21537904


--------------------------------------------------------------------------------------------------------




 average (electrostatic) potential at core
  the test charge radii are     0.7215  0.5201
  (the norm of the test charge is              1.0000)
       1 -80.4532       2 -44.6441       3 -44.6441



 E-fermi :  -6.0571     XC(G=0):  -1.0313     alpha+bet : -0.2602


 k-point     1 :       0.0000    0.0000    0.0000
  band No.  band energies     occupation 
      1     -25.2138      2.00000
      2     -13.1085      2.00000
      3      -9.0172      2.00000
      4      -7.0382      2.00000
      5      -1.0522      0.00000
      6       1.1244      0.00000
      7       1.2685      0.00000
      8       1.7460      0.00000


--------------------------------------------------------------------------------------------------------


 soft charge-density along one line, spin component           1
         0         1         2         3         4         5         6         7         8         9
 total charge-density along one line

 pseudopotential strength for first ion, spin component:           1
 13.785  -0.525  -0.000   0.000  -0.123   0.000  -0.000   0.006
 -0.525   0.119   0.000  -0.000   0.015  -0.000   0.000  -0.003
 -0.000   0.000 -10.568   0.000   0.000   0.293  -0.000  -0.000
  0.000  -0.000   0.000 -10.322  -0.000  -0.000   0.251   0.000
 -0.123   0.015   0.000  -0.000 -10.460  -0.000   0.000   0.274
  0.000  -0.000   0.293  -0.000  -0.000   0.127   0.000   0.000
 -0.000   0.000  -0.000   0.251   0.000   0.000   0.139  -0.000
  0.006  -0.003  -0.000   0.000   0.274   0.000  -0.000   0.132
 total augmentation occupancy for first ion, spin component:           1
  1.855   0.215   0.000   0.000  -0.164   0.000   0.000   0.055
  0.215   0.048   0.000   0.000   0.173   0.000   0.000   0.032
  0.000   0.000   1.420   0.000   0.000   0.276   0.000   0.000
  0.000   0.000   0.000   1.811   0.000   0.000   0.114   0.000
 -0.164   0.173   0.000   0.000   1.585   0.000   0.000   0.208
  0.000   0.000   0.276   0.000   0.000   0.054   0.000   0.000
  0.000   0.000   0.000   0.114   0.000   0.000   0.007   0.000
  0.055   0.032   0.000   0.000   0.208   0.000   0.000   0.031


------------------------ aborting loop because EDIFF is reached ----------------------------------------


    CHARGE:  cpu time    0.0092: real time    0.0092
    FORLOC:  cpu time    0.0046: real time    0.0046
    FORNL :  cpu time    0.0030: real time    0.0030
    STRESS:  cpu time    0.0448: real time    0.0449
    FORHAR:  cpu time    0.0197: real time    0.0197
    MIXING:  cpu time    0.0027: real time    0.0027
    OFIELD:  cpu time    0.0000: real time    0.0000

  FORCE on cell =-STRESS in cart. coord.  units (eV):
  Direction    XX          YY          ZZ          XY          YZ          ZX
  --------------------------------------------------------------------------------------
  Alpha Z     0.44833     0.44833     0.44833
  Ewald      10.05077    70.60248   -55.29920     0.00000     0.00000    -0.00000
  Hartree   140.59416   151.02190   128.88891    -0.00000    -0.00000    -0.00000
  E(xc)     -36.20635   -35.98108   -36.48798     0.00000     0.00000     0.00000
  Local    -240.61693  -294.65311  -183.83546    -0.00000     0.00000    -0.00000
  n-local   -31.55546   -30.81193   -31.36598     0.00000     0.00000     0.00000
  augment     6.81010     5.75826     8.17667    -0.00000     0.00000     0.00000
  Kinetic   150.13014   133.48737   168.58577     0.00000     0.00000    -0.00000
  Fock        0.00000     0.00000     0.00000     0.00000     0.00000     0.00000
  -------------------------------------------------------------------------------------
  Total      -0.34525    -0.12778    -0.88894     0.00000     0.00000     0.00000
  in kB      -1.10602    -0.40935    -2.84773     0.00000     0.00000     0.00000
  external pressure =       -1.45 kB  Pullay stress =        0.00 kB


 VOLUME and BASIS-vectors are now :
 -----------------------------------------------------------------------------
  energy-cutoff  :      400.00
  volume of cell :      500.13
      direct lattice vectors                 reciprocal lattice vectors
     7.937700000  0.000000000  0.000000000     0.125981078  0.000000000  0.000000000
     0.000000000  7.937700000  0.000000000     0.000000000  0.125981078  0.000000000
     0.000000000  0.000000000  7.937700000     0.000000000  0.000000000  0.125981078

  length of vectors
     7.937700000  7.937700000  7.937700000     0.125981078  0.125981078  0.125981078


 FORCES acting on ions
    electron-ion (+dipol)            ewald-force                    non-local-force                 convergence-correction
[...]

 Broyden mixing:
  rms(total) = 0.15800E-03    rms(broyden)= 0.15783E-03
  rms(prec ) = 0.33776E-03
  weight for this iteration     100.00

 eigenvalues of (default mixing * dielectric matrix)
  average eigenvalue GAMMA=   1.7440
  3.1162  2.4661  1.9090  1.1104  0.9312  0.9312

 Free energy of the ion-electron system (eV)
  ---------------------------------------------------
  alpha Z        PSCENC =         0.44832783
  Ewald energy   TEWEN  =        24.69489446
  -Hartree energ DENC   =      -419.91094749
  -exchange      EXHF   =         0.00000000
  -V(xc)+E(xc)   XCENC  =        34.12659498
  PAW double counting   =       330.92739802     -333.04305882
  entropy T*S    EENTRO =        -0.00000000
  eigenvalues    EBANDS =      -108.68040530
  atomic energy  EATOM  =       457.22046137
  Solvation  Ediel_sol  =         0.00000000
  ---------------------------------------------------
  free energy    TOTEN  =       -14.21673495 eV

  energy without entropy =      -14.21673495  energy(sigma->0) =      -14.21673495


--------------------------------------------------------------------------------------------------------




--------------------------------------- Iteration     13(   8)  ---------------------------------------


    POTLOK:  cpu time    0.0617: real time    0.0617
    SETDIJ:  cpu time    0.0007: real time    0.0007
     EDDAV:  cpu time    0.0353: real time    0.0354
       DOS:  cpu time    0.0001: real time    0.0001
    CHARGE:  cpu time    0.0090: real time    0.0090
    MIXING:  cpu time    0.0026: real time    0.0026
    --------------------------------------------
      LOOP:  cpu time    0.1095: real time    0.1095

 eigenvalue-minimisations  :    32
 total energy-change (2. order) :-0.2276785E-04  (-0.2130095E-06)
 number of electron       8.0000115 magnetization 
 augmentation part        0.6904440 magnetization 

 Broyden mixing:
  rms(total) = 0.89636E-04    rms(broyden)= 0.89597E-04
  rms(prec ) = 0.16531E-03
  weight for this iteration     100.00

 eigenvalues of (default mixing * dielectric matrix)
  average eigenvalue GAMMA=   1.8616
  3.8647  2.5498  1.8229  1.8229  0.9057  1.0326  1.0326

 Free energy of the ion-electron system (eV)
  ---------------------------------------------------
  alpha Z        PSCENC =         0.44832783
  Ewald energy   TEWEN  =        24.69489446
  -Hartree energ DENC   =      -419.91218465
  -exchange      EXHF   =         0.00000000
  -V(xc)+E(xc)   XCENC  =        34.12666494
  PAW double counting   =       330.92673221     -333.04237500
  entropy T*S    EENTRO =        -0.00000000
  eigenvalues    EBANDS =      -108.67927888
  atomic energy  EATOM  =       457.22046137
  Solvation  Ediel_sol  =         0.00000000
  ---------------------------------------------------
  free energy    TOTEN  =       -14.21675772 eV

  energy without entropy =      -14.21675772  energy(sigma->0) =      -14.21675772


--------------------------------------------------------------------------------------------------------




--------------------------------------- Iteration     13(   9)  ---------------------------------------


    POTLOK:  cpu time    0.0611: real time    0.0611
    SETDIJ:  cpu time    0.0007: real time    0.0007
     EDDAV:  cpu time    0.0203: real time    0.0203
       DOS:  cpu time    0.0001: real time    0.0001
    CHARGE:  cpu time    0.0090: real time    0.0090
    MIXING:  cpu time    0.0027: real time    0.0027
    --------------------------------------------
      LOOP:  cpu time    0.0939: real time    0.0939

 eigenvalue-minimisations  :    16
 total energy-change (2. order) :-0.1261003E-04  (-0.1014734E-06)
 number of electron       8.0000115 magnetization 
 augmentation part        0.6904338 magnetization 

 Broyden mixing:
  rms(total) = 0.29093E-04    rms(broyden)= 0.29044E-04
  rms(prec ) = 0.64476E-04
  weight for this iteration     100.00

 eigenvalues of (default mixing * dielectric matrix)
  average eigenvalue GAMMA=   2.0335
  5.1341  2.7400  2.4144  1.8830  0.9122  1.0224  1.0224  1.1396

 Free energy of the ion-electron system (eV)
  ---------------------------------------------------
  alpha Z        PSCENC =         0.44832783
  Ewald energy   TEWEN  =        24.69489446
  -Hartree energ DENC   =      -419.91327515
  -exchange      EXHF   =         0.00000000
  -V(xc)+E(xc)   XCENC  =        34.12672191
  PAW double counting   =       330.92884808     -333.04455619
  entropy T*S    EENTRO =        -0.00000000
  eigenvalues    EBANDS =      -108.67819263
  atomic energy  EATOM  =       457.22046137
  Solvation  Ediel_sol  =         0.00000000
  ---------------------------------------------------
  free energy    TOTEN  =       -14.21677033 eV

  energy without entropy =      -14.21677033  energy(sigma->0) =      -14.21677033


--------------------------------------------------------------------------------------------------------




--------------------------------------- Iteration     13(  10)  ---------------------------------------


    POTLOK:  cpu time    0.0620: real time    0.0620
    SETDIJ:  cpu time    0.0007: real time    0.0007
     EDDAV:  cpu time    0.0348: real time    0.0348
       DOS:  cpu time    0.0001: real time    0.0001
    --------------------------------------------
      LOOP:  cpu time    0.0976: real time    0.0976

 eigenvalue-minimisations  :    32
 total energy-change (2. order) :-0.4552757E-05  (-0.3046077E-07)
 number of electron       8.0000115 magnetization 
 augmentation part        0.6904338 magnetization 

 Free energy of the ion-electron system (eV)
  ---------------------------------------------------
  alpha Z        PSCENC =         0.44832783
  Ewald energy   TEWEN  =        24.69489446
  -Hartree energ DENC   =      -419.91337623
  -exchange      EXHF   =         0.00000000
  -V(xc)+E(xc)   XCENC  =        34.12672329
  PAW double counting   =       330.93003802     -333.04577195
  entropy T*S    EENTRO =        -0.00000000
  eigenvalues    EBANDS =      -108.67807166
  atomic energy  EATOM  =       457.22046137
  Solvation  Ediel_sol  =         0.00000000
  ---------------------------------------------------
  free energy    TOTEN  =       -14.21677488 eV

  energy without entropy =      -14.21677488  energy(sigma->0) =      -14.21677488


--------------------------------------------------------------------------------------------------------




 average (electrostatic) potential at core
  the test charge radii are     0.7215  0.5201
  (the norm of the test charge is              1.0000)
       1 -80.4700       2 -44.4942       3 -44.6965



 E-fermi :  -6.0577     XC(G=0):  -1.0157     alpha+bet : -0.2602


 k-point     1 :       0.0000    0.0000    0.0000
  band No.  band energies     occupation 
      1     -25.2169      2.00000
      2     -12.9412      2.00000
      3      -9.1398      2.00000
      4      -7.0411      2.00000
      5      -1.0633      0.00000
      6       1.1399      0.00000
      7       1.2620      0.00000
      8       1.7466      0.00000


--------------------------------------------------------------------------------------------------------


 soft charge-density along one line, spin component           1
         0         1         2         3         4         5         6         7         8         9
 total charge-density along one line

 pseudopotential strength for first ion, spin component:           1
 13.786  -0.525  -0.002  -0.000  -0.123   0.000   0.000   0.006
 -0.525   0.119   0.000   0.000   0.015  -0.000  -0.000  -0.003
 -0.002   0.000 -10.567  -0.000  -0.003   0.293   0.000   0.000
 -0.000   0.000  -0.000 -10.327  -0.000   0.000   0.253   0.000
 -0.123   0.015  -0.003  -0.000 -10.472   0.000   0.000   0.277
  0.000  -0.000   0.293   0.000   0.000   0.126  -0.000  -0.000
  0.000  -0.000   0.000   0.253   0.000  -0.000   0.139  -0.000
  0.006  -0.003   0.000   0.000   0.277  -0.000  -0.000   0.131
 total augmentation occupancy for first ion, spin component:           1
  1.859   0.211   0.004   0.000  -0.167   0.002   0.000   0.055
  0.211   0.048   0.002   0.000   0.175   0.001   0.000   0.033
  0.004   0.002   1.418   0.000   0.006   0.270   0.000   0.002
  0.000   0.000   0.000   1.811   0.000   0.000   0.113   0.000
 -0.167   0.175   0.006   0.000   1.573   0.002   0.000   0.212
  0.002   0.001   0.270   0.000   0.002   0.051   0.000   0.001
  0.000   0.000   0.000   0.113   0.000   0.000   0.007   0.000
  0.055   0.033   0.002   0.000   0.212   0.001   0.000   0.032


------------------------ aborting loop because EDIFF is reached ----------------------------------------


    CHARGE:  cpu time    0.0091: real time    0.0091
    FORLOC:  cpu time    0.0046: real time    0.0046
    FORNL :  cpu time    0.0029: real time    0.0029
    STRESS:  cpu time    0.0449: real time    0.0449
    FORHAR:  cpu time    0.0202: real time    0.0202
    MIXING:  cpu time    0.0030: real time    0.0030
    OFIELD:  cpu time    0.0000: real time    0.0000

  FORCE on cell =-STRESS in cart. coord.  units (eV):
  Direction    XX          YY          ZZ          XY          YZ          ZX
  --------------------------------------------------------------------------------------
  Alpha Z     0.44833     0.44833     0.44833
  Ewald      13.77405    66.22153   -55.30072     0.99243     0.00000     0.00000
  Hartree   141.18029   150.06710   128.66516    -0.00697    -0.00000    -0.00000
  E(xc)     -36.15534   -35.96965   -36.45682     0.00094     0.00000    -0.00000
  Local    -243.99451  -290.47223  -183.63331    -0.49934     0.00000    -0.00000
  n-local   -31.49776   -30.61499   -31.28909    -0.08610     0.00000     0.00000
  augment     6.72336     5.78451     8.15439    -0.01133     0.00000     0.00000
  Kinetic   148.93956   134.38780   168.52301    -0.00452     0.00000     0.00000
  Fock        0.00000     0.00000     0.00000     0.00000     0.00000     0.00000
  -------------------------------------------------------------------------------------
  Total      -0.58203    -0.14761    -0.88905     0.38512     0.00000     0.00000
  in kB      -1.86454    -0.47289    -2.84809     1.23373     0.00000     0.00000
  external pressure =       -1.73 kB  Pullay stress =        0.00 kB


 VOLUME and BASIS-vectors are now :
 -----------------------------------------------------------------------------
  energy-cutoff  :      400.00
  volume of cell :      500.13
      direct lattice vectors                 reciprocal lattice vectors
     7.937700000  0.000000000  0.000000000     0.125981078  0.000000000  0.000000000
     0.000000000  7.937700000  0.000000000     0.000000000  0.125981078  0.000000000
     0.000000000  0.000000000  7.937700000     0.000000000  0.000000000  0.125981078

  length of vectors
     7.937700000  7.937700000  7.937700000     0.125981078  0.125981078  0.125981078


 FORCES acting on ions
    electron-ion (+dipol)            ewald-force                    non-local-force                 convergence-correction
 -----------------------------------------------------------------------------------------------
   0.639E+02 0.879E+00 -.141E-14   -.114E+03 -.166E+01 0.374E-16   0.496E+02 0.129E+00 0.280E-26   0.266E-03 -.157E-03 -.463E-14
   -.508E+02 0.709E+02 -.110E-06   0.556E+02 -.776E+02 0.246E-17   -.485E+01 0.669E+01 0.157E-27   -.388E-04 0.442E-04 -.834E-16
   -.527E+02 -.716E+02 0.144E-06   0.584E+02 0.793E+02 0.131E-16   -.524E+01 -.701E+01 0.200E-28   -.299E-04 -.711E-04 0.605E-15
 -----------------------------------------------------------------------------------------------
   -.395E+02 0.192E+00 0.344E-07   0.000E+00 0.000E+00 0.529E-16   0.395E+02 -.192E+00 0.298E-26   0.197E-03 -.184E-03 -.411E-14


 POSITION                                       TOTAL-FORCE (eV/Angst)
 -----------------------------------------------------------------------------------
      0.00000      0.00000      0.00000        -0.402606     -0.650017      0.000000
      0.59636      7.16918      0.00000        -0.057153     -0.059065      0.000000
      0.59636      0.74852      0.00000         0.459758      0.709082     -0.000000
 -----------------------------------------------------------------------------------
    total drift:                               -0.000930     -0.000787      0.000000


--------------------------------------------------------------------------------------------------------



  FREE ENERGIE OF THE ION-ELECTRON SYSTEM (eV)
  ---------------------------------------------------
  free  energy   TOTEN  =       -14.21677488 eV

  energy  without entropy=      -14.21677488  energy(sigma->0) =      -14.21677488

 d Force =-0.1096707E-02[-0.284E-01, 0.262E-01]  d Energy =-0.3155297E-03-0.781E-03
 d Force =-0.3098939E+01[-0.317E+01,-0.303E+01]  d Ewald  =-0.3098711E+01-0.228E-03


--------------------------------------------------------------------------------------------------------


    POTLOK:  cpu time    0.0625: real time    0.0625


--------------------------------------------------------------------------------------------------------


 Finite differences progress:
  Degree of freedom:   6/  6
  Displacement:        2/  2
  Total:              12/ 12

 SECOND DERIVATIVES (NOT SYMMETRIZED)
 ------------------------------------
               1X          1Y          2X          2Y          3X          3Y 
  1X   -41.039863    0.000000   20.519932  -18.421681   20.519932   18.421681
  1Y    -0.000153  -62.473007  -24.245564   31.237503   24.245717   31.235504
  2X    20.445298  -24.201733  -19.611476   21.307509   -0.833822    2.894224
  2Y   -18.460591   31.161484   21.351563  -34.038928   -2.890972    2.877444
  3X    20.442767   24.204664   -0.831002   -2.896241  -19.611765  -21.308423
  3Y    18.496214   31.187473    2.888798    2.895747  -21.385012  -34.083220


 Eigenvectors and eigenvalues of the dynamical matrix
 ----------------------------------------------------


   1 f  =  114.764165 THz   721.084516 2PiTHz 3828.120371 cm-1   474.626606 meV
             X         Y         Z           dx          dy          dz
      0.000000  0.000000  0.000000    -0.001325   -0.269104           0  
      0.596363  7.169178  0.000000    -0.414974    0.533738           0  
      0.596363  0.768522  0.000000     0.420297    0.542081           0  

   2 f  =  111.367304 THz   699.741411 2PiTHz 3714.813298 cm-1   460.578314 meV
             X         Y         Z           dx          dy          dz
      0.000000  0.000000  0.000000     0.192290   -0.001998           0  
      0.596363  7.169178  0.000000    -0.387278    0.581551           0  
      0.596363  0.768522  0.000000    -0.381134   -0.574083           0  

   3 f  =   47.441667 THz   298.084784 2PiTHz 1582.483621 cm-1   196.203034 meV
             X         Y         Z           dx          dy          dz
      0.000000  0.000000  0.000000     0.273427    0.000109           0  
      0.596363  7.169178  0.000000    -0.544516   -0.407660           0  
      0.596363  0.768522  0.000000    -0.544537    0.407472           0  

   4 f  =    0.692519 THz     4.351225 2PiTHz   23.099944 cm-1     2.864029 meV
             X         Y         Z           dx          dy          dz
      0.000000  0.000000  0.000000    -0.006234   -0.962647           0  
      0.596363  7.169178  0.000000     0.131968   -0.137190           0  
      0.596363  0.768522  0.000000    -0.135121   -0.137032           0  

   5 f/i=    0.055659 THz     0.349717 2PiTHz    1.856588 cm-1     0.230188 meV
             X         Y         Z           dx          dy          dz
      0.000000  0.000000  0.000000     0.942454   -0.006417           0  
      0.596363  7.169178  0.000000     0.236399   -0.001238           0  
      0.596363  0.768522  0.000000     0.236326   -0.001927           0  

   6 f/i=    2.879465 THz    18.092209 2PiTHz   96.048595 cm-1    11.908512 meV
             X         Y         Z           dx          dy          dz
      0.000000  0.000000  0.000000     0.001501    0.029136           0  
      0.596363  7.169178  0.000000     0.554991    0.438078           0  
      0.596363  0.768522  0.000000    -0.554490    0.437907           0  

 Finite differences POTIM=   2.0000000000000000E-002
  LATTYP: Found a simple cubic cell.
 ALAT       =     7.9377000000
  
  Lattice vectors:
  
 A1 = (   7.9377000000,   0.0000000000,   0.0000000000)
 A2 = (   0.0000000000,   7.9377000000,   0.0000000000)
 A3 = (   0.0000000000,   0.0000000000,   7.9377000000)


Analysis of symmetry for initial positions (statically):
=====================================================================
 Subroutine PRICEL returns:
 Original cell was already a primitive cell.
 

 Routine SETGRP: Setting up the symmetry group for a 
 simple cubic supercell.


 Subroutine GETGRP returns: Found  4 space group operations
 (whereof  4 operations were pure point group operations)
 out of a pool of 48 trial point group operations.


The static configuration has the point symmetry C_2v.


Analysis of symmetry for dynamics (positions and initial velocities):
=====================================================================
 Subroutine PRICEL returns:
 Original cell was already a primitive cell.
 

 Routine SETGRP: Setting up the symmetry group for a 
 simple cubic supercell.


 Subroutine GETGRP returns: Found  4 space group operations
 (whereof  4 operations were pure point group operations)
 out of a pool of 48 trial point group operations.


The dynamic configuration has the point symmetry C_2v.


Analysis of constrained symmetry for selective dynamics:
=====================================================================
 Subroutine PRICEL returns:
 Original cell was already a primitive cell.
 

 Routine SETGRP: Setting up the symmetry group for a 
 simple cubic supercell.


 Subroutine GETGRP returns: Found  4 space group operations
 (whereof  4 operations were pure point group operations)
 out of a pool of 48 trial point group operations.


The constrained configuration has the point symmetry C_2v.


 Subroutine INISYM returns: Found  4 space group operations
 (whereof  4 operations are pure point group operations),
 and found     1 'primitive' translations


 KPOINTS: Gamma-point only                        
  k-points in reciprocal lattice
Space group operators:
 irot       det(A)        alpha          n_x          n_y          n_z        tau_x        tau_y        tau_z
    1     1.000000     0.000001     1.000000     0.000000     0.000000     0.000000     0.000000     0.000000
    2    -1.000000   180.000000     0.000000     0.000000     1.000000     0.000000     0.000000     0.000000
    3     1.000000   180.000000     1.000000     0.000000     0.000000     0.000000     0.000000     0.000000
    4    -1.000000   180.000000     0.000000     1.000000     0.000000     0.000000     0.000000     0.000000
 writing wavefunctions
     LOOP+:  cpu time    1.1835: real time    1.1836
    4ORBIT:  cpu time    0.0000: real time    0.0000

 total amount of memory used by VASP MPI-rank0    46433. kBytes
=======================================================================

   base      :      30000. kBytes
   nonl-proj :       1592. kBytes
   fftplans  :       4661. kBytes
   grid      :       9881. kBytes
   one-center:          9. kBytes
   wavefun   :        290. kBytes

  
  
 General timing and accounting informations for this job:
 ========================================================
  
                  Total CPU time used (sec):       15.520
                            User time (sec):       14.409
                          System time (sec):        1.111
                         Elapsed time (sec):       15.828
  
                   Maximum memory used (kb):       55904.
                   Average memory used (kb):           0.
  
                          Minor page faults:       342288
                          Major page faults:           37
                 Voluntary context switches:         1269
