H2O vibration                           
           1
     7.937700    0.000000    0.000000
     0.000000    7.937700    0.000000
     0.000000    0.000000    7.937700
   O    H 
   1   2
Direct configuration=     1
   0.00000000  0.00000000  0.00000000
   0.07513045  0.90318071  0.00000000
   0.07513045  0.09681929  0.00000000
Direct configuration=     2
   0.00251962  0.00000000  0.00000000
   0.07513045  0.90318071  0.00000000
   0.07513045  0.09681929  0.00000000
Direct configuration=     3
  -0.00251962  0.00000000  0.00000000
   0.07513045  0.90318071  0.00000000
   0.07513045  0.09681929  0.00000000
Direct configuration=     4
   0.00000000  0.00251962  0.00000000
   0.07513045  0.90318071  0.00000000
   0.07513045  0.09681929  0.00000000
Direct configuration=     5
   0.00000000 -0.00251962  0.00000000
   0.07513045  0.90318071  0.00000000
   0.07513045  0.09681929  0.00000000
Direct configuration=     6
   0.00000000  0.00000000  0.00000000
   0.07765007  0.90318071  0.00000000
   0.07513045  0.09681929  0.00000000
Direct configuration=     7
   0.00000000  0.00000000  0.00000000
   0.07261083  0.90318071  0.00000000
   0.07513045  0.09681929  0.00000000
Direct configuration=     8
   0.00000000  0.00000000  0.00000000
   0.07513045  0.90570033  0.00000000
   0.07513045  0.09681929  0.00000000
Direct configuration=     9
   0.00000000  0.00000000  0.00000000
   0.07513045  0.90066109  0.00000000
   0.07513045  0.09681929  0.00000000
Direct configuration=    10
   0.00000000  0.00000000  0.00000000
   0.07513045  0.90318071  0.00000000
   0.07765007  0.09681929  0.00000000
Direct configuration=    11
   0.00000000  0.00000000  0.00000000
   0.07513045  0.90318071  0.00000000
   0.07261083  0.09681929  0.00000000
Direct configuration=    12
   0.00000000  0.00000000  0.00000000
   0.07513045  0.90318071  0.00000000
   0.07513045  0.09933891  0.00000000
Direct configuration=    13
   0.00000000  0.00000000  0.00000000
   0.07513045  0.90318071  0.00000000
   0.07513045  0.09429967  0.00000000
