    3    3   10    1
  0.1667104E+03  0.7937700E-09  0.7937700E-09  0.7937700E-09  0.5000000E-15
   1.0000000000000000E-004
  CAR 
 unknown system                          
      8      1      8

  0.0000000E+00  0.0000000E+00  0.0000000E+00  0.1000000E+01
    1      -25.114370   1.000000
    2      -12.915094   1.000000
    3       -9.084777   1.000000
    4       -7.019408   1.000000
    5       -1.074322   0.000000
    6        1.098381   0.000000
    7        1.242379   0.000000
    8        1.745873   0.000000
