       N       E                     dE             d eps       ncg     rms          rms(c)
DAV:   1     0.663753320101E+02    0.66375E+02   -0.16260E+03    16   0.444E+02
DAV:   2    -0.802452610604E+01   -0.74400E+02   -0.74400E+02    32   0.107E+02
DAV:   3    -0.162064390113E+02   -0.81819E+01   -0.81819E+01    16   0.671E+01
DAV:   4    -0.163153912198E+02   -0.10895E+00   -0.10895E+00    32   0.796E+00
DAV:   5    -0.163154036790E+02   -0.12459E-04   -0.12459E-04    32   0.826E-02    0.785E+00
DAV:   6    -0.143703967482E+02    0.19450E+01   -0.93769E+00    16   0.217E+01    0.302E+00
DAV:   7    -0.142621419356E+02    0.10825E+00   -0.11214E-01    32   0.258E+00    0.189E+00
DAV:   8    -0.141849145868E+02    0.77227E-01   -0.73050E-02    24   0.267E+00    0.224E-01
DAV:   9    -0.141896750821E+02   -0.47605E-02   -0.46815E-03    24   0.431E-01    0.137E-01
DAV:  10    -0.141980596682E+02   -0.83846E-02   -0.39430E-03    16   0.548E-01    0.639E-02
DAV:  11    -0.142051915383E+02   -0.71319E-02   -0.44711E-03    16   0.365E-01    0.887E-02
DAV:  12    -0.142062321362E+02   -0.10406E-02   -0.11812E-03    32   0.223E-01    0.179E-02
DAV:  13    -0.142073406312E+02   -0.11085E-02   -0.15720E-04    24   0.843E-02    0.119E-02
DAV:  14    -0.142074378752E+02   -0.97244E-04   -0.97785E-06    32   0.253E-02
   1 F= -.14207438E+02 E0= -.14207438E+02  d E =-.142074E+02
       N       E                     dE             d eps       ncg     rms          rms(c)
DAV:   1    -0.142044881817E+02    0.28524E-02   -0.17225E+00    16   0.115E+01    0.855E-01
DAV:   2    -0.141909756125E+02    0.13513E-01   -0.83093E-02    24   0.206E+00    0.314E-01
DAV:   3    -0.141904582113E+02    0.51740E-03   -0.19056E-03    24   0.400E-01    0.159E-01
DAV:   4    -0.141905794187E+02   -0.12121E-03   -0.84562E-04    24   0.281E-01    0.338E-02
DAV:   5    -0.141905985367E+02   -0.19118E-04   -0.18558E-04    24   0.110E-01
   2 F= -.14190599E+02 E0= -.14190599E+02  d E =0.168393E-01
       N       E                     dE             d eps       ncg     rms          rms(c)
DAV:   1    -0.142274139823E+02   -0.36835E-01   -0.54443E-01    16   0.648E+00    0.447E-01
DAV:   2    -0.142236375126E+02    0.37765E-02   -0.20877E-02    24   0.106E+00    0.178E-01
DAV:   3    -0.142234848420E+02    0.15267E-03   -0.97779E-04    24   0.267E-01    0.857E-02
DAV:   4    -0.142235395011E+02   -0.54659E-04   -0.36101E-04    16   0.170E-01
   3 F= -.14223540E+02 E0= -.14223540E+02  d E =-.329410E-01
       N       E                     dE             d eps       ncg     rms          rms(c)
DAV:   1    -0.142237177726E+02   -0.23293E-03   -0.36915E-03    24   0.587E-01    0.332E-02
DAV:   2    -0.142237083268E+02    0.94458E-05   -0.11800E-04    24   0.860E-02
   4 F= -.14223708E+02 E0= -.14223708E+02  d E =-.168826E-03
