unknown system                          
           1
     7.937700    0.000000    0.000000
     0.000000    7.937700    0.000000
     0.000000    0.000000    7.937700
   O    H 
   1   2
Direct configuration=     1
   0.00000000  0.00000000  0.00000000
   0.07333333  0.90466667  0.00000000
   0.07333333  0.09533333  0.00000000
Direct configuration=     2
   0.00000000  0.00000000  0.00000000
   0.07663008  0.90013126  0.00000000
   0.07663008  0.09986874  0.00000000
Direct configuration=     3
   0.00000000  0.00000000  0.00000000
   0.07499097  0.90283468  0.00000000
   0.07499097  0.09716532  0.00000000
Direct configuration=     4
   0.00000000  0.00000000  0.00000000
   0.07498321  0.90312195  0.00000000
   0.07498321  0.09687805  0.00000000
